18
Lattice="14.99999999685098 0.0 0.0 0.0 14.99999999685098 0.0 0.0 0.0 14.99999999685098" Properties=species:S:1:pos:R:3:forces_eV_per_au:R:3:forces:R:3 energy_eV=-1121.5223486990526 energy=-1121.5223486990526 free_energy=-1121.5223486990526 pbc="T T T"
C        9.04202400       7.50000000       7.60000050      -0.90331622      -0.00000051      -6.42712670      -0.90331622      -0.00000051      -6.42712670
C        8.27101200       8.83543200       7.39999950      -0.44359371      -0.77786232       6.42375470      -0.44359371      -0.77786232       6.42375470
C        6.72898800       8.83543200       7.60000050       0.44359500      -0.77786104      -6.42375418       0.44359500      -0.77786104      -6.42375418
C        5.95797600       7.50000000       7.39999950       0.90331647      -0.00000051       6.42712695       0.90331647      -0.00000051       6.42712695
C        6.72898800       6.16456800       7.60000050       0.44359526       0.77786104      -6.42375418       0.44359526       0.77786104      -6.42375418
C        8.27101200       6.16456800       7.39999950      -0.44359397       0.77786206       6.42375470      -0.44359397       0.77786206       6.42375470
H        9.70966350       7.50000000       8.36604900       1.59249528      -0.00000026       2.63726382       1.59249528      -0.00000026       2.63726382
H        9.70966350       7.50000000       6.63395100      -0.43865617      -0.00000026       1.55575550      -0.43865617      -0.00000026       1.55575550
H        8.60483100       9.41362500       6.63395100       0.79619917       1.37945161      -2.63762557       0.79619917       1.37945161      -2.63762557
H        8.60483100       9.41362500       8.36604900      -0.21939480      -0.37980979      -1.55569893      -0.21939480      -0.37980979      -1.55569893
H        6.39516900       9.41362500       6.63395100       0.21939506      -0.37980850       1.55569816       0.21939506      -0.37980850       1.55569816
H        6.39516900       9.41362500       8.36604900      -0.79619789       1.37945187       2.63762608      -0.79619789       1.37945187       2.63762608
H        5.29033650       7.50000000       6.63395100      -1.59249913      -0.00000026      -2.63726742      -1.59249913      -0.00000026      -2.63726742
H        5.29033650       7.50000000       8.36604900       0.43865437      -0.00000026      -1.55575267       0.43865437      -0.00000026      -1.55575267
H        6.39516900       5.58637500       6.63395100       0.21939532       0.37980927       1.55569919       0.21939532       0.37980927       1.55569919
H        6.39516900       5.58637500       8.36604900      -0.79619737      -1.37945110       2.63762506      -0.79619737      -1.37945110       2.63762506
H        8.60483100       5.58637500       8.36604900      -0.21939506       0.37981030      -1.55569970      -0.21939506       0.37981030      -1.55569970
H        8.60483100       5.58637500       6.63395100       0.79619866      -1.37945084      -2.63762480       0.79619866      -1.37945084      -2.63762480
18
Lattice="14.99999999685098 0.0 0.0 0.0 14.99999999685098 0.0 0.0 0.0 14.99999999685098" Properties=species:S:1:pos:R:3:forces_eV_per_au:R:3:forces:R:3 energy_eV=-1122.045751096121 energy=-1122.045751096121 free_energy=-1122.045751096121 pbc="T T T"
C        9.04572266       7.50157020       7.60159054      -1.15581140      -0.10870213      -6.01509559      -1.15581140      -0.10870213      -6.01509559
C        8.26556941       8.84158443       7.40813224      -0.01305169      -0.93123454       5.33215274      -0.01305169      -0.93123454       5.33215274
C        6.73116662       8.83174345       7.59383492      -0.23192636       0.57377535      -4.55971365      -0.23192636       0.57377535      -4.55971365
C        5.96349007       7.50258236       7.39910559       0.63734999      -0.13326670       5.50113387       0.63734999      -0.13326670       5.50113387
C        6.72994701       6.16179798       7.59383800       0.01337308       0.42363501      -5.24147404       0.01337308       0.42363501      -5.24147404
C        8.26929862       6.16292503       7.40368957      -0.22597194       0.37524634       5.48225297      -0.22597194       0.37524634       5.48225297
H        9.69845889       7.49031834       8.38391742       1.49916577       0.02332685       2.53477733       1.49916577       0.02332685       2.53477733
H        9.70488478       7.48958488       6.65088570      -0.24906919       0.08326003       1.33345072      -0.24906919       0.08326003       1.33345072
H        8.60643410       9.41068280       6.62379370       0.59845229       1.05833522      -2.28691733       0.59845229       1.05833522      -2.28691733
H        8.61818794       9.40858640       8.33442449      -0.18512791      -0.07142473      -0.97884854      -0.18512791      -0.07142473      -0.97884854
H        6.40172480       9.42030166       6.63434580       0.17236624      -0.39832816       1.57880132       0.17236624      -0.39832816       1.57880132
H        6.38236876       9.42425928       8.40770954      -0.13171273       0.25032209       0.99623974      -0.13171273       0.25032209       0.99623974
H        5.28923579       7.51699244       6.62790858      -1.25608314      -0.04910370      -2.46375266      -1.25608314      -0.04910370      -2.46375266
H        5.27719271       7.50822620       8.32104626       0.34117588      -0.04352081      -1.02187544       0.34117588      -0.04352081      -1.02187544
H        6.37915155       5.57058073       6.66576876       0.23411925       0.33597736       1.12400943       0.23411925       0.33597736       1.12400943
H        6.38169659       5.57721421       8.37459547      -0.46476443      -0.81274808       2.06026199      -0.46476443      -0.81274808       2.06026199
H        8.59764780       5.58084949       8.35384507      -0.13843591       0.31337582      -1.35521716      -0.13843591       0.31337582      -1.35521716
H        8.60111707       5.57614598       6.61948469       0.55595221      -0.88892472      -2.02018620       0.55595221      -0.88892472      -2.02018620
18
Lattice="14.99999999685098 0.0 0.0 0.0 14.99999999685098 0.0 0.0 0.0 14.99999999685098" Properties=species:S:1:pos:R:3:forces_eV_per_au:R:3:forces:R:3 energy_eV=-1122.4539798143521 energy=-1122.4539798143521 free_energy=-1122.4539798143521 pbc="T T T"
C        9.04782944       7.49607042       7.59995990      -0.97362020       0.10205146      -5.66940486      -0.97362020       0.10205146      -5.66940486
C        8.25998358       8.84540141       7.41425718       0.90353527      -0.05862655       4.27061289       0.90353527      -0.05862655       4.27061289
C        6.73798694       8.84422753       7.59658165      -0.50360172      -0.14016703      -4.50868753      -0.50360172      -0.14016703      -4.50868753
C        5.96264784       7.49425099       7.40742751      -0.14799604       0.26406515       3.57874626      -0.14799604       0.26406515       3.57874626
C        6.73069324       6.15963981       7.58301458      -0.74081864      -0.61024696      -3.52323588      -0.74081864      -0.61024696      -3.52323588
C        8.27121133       6.16637307       7.40735808      -0.27909171      -0.35568873       3.77590796      -0.27909171      -0.35568873       3.77590796
H        9.71361129       7.45256869       8.38331820       1.22079398       0.14878074       2.17368517       1.22079398       0.14878074       2.17368517
H        9.69738381       7.49677519       6.64482962      -0.22562947       0.03923683       1.32285726      -0.22562947       0.03923683       1.32285726
H        8.59433146       9.44599078       6.60247485       0.22580328       0.14912398      -1.14119031       0.22580328       0.14912398      -1.14119031
H        8.63720790       9.42495782       8.33370464      -0.30738901      -0.23104859      -1.07166845      -0.30738901      -0.23104859      -1.07166845
H        6.39921005       9.40369023       6.63855096       0.16282462      -0.22287633       1.42093919       0.16282462      -0.22287633       1.42093919
H        6.39153131       9.43929100       8.40053160      -0.27586214       0.36581707       1.21098830      -0.27586214       0.36581707       1.21098830
H        5.28544055       7.51632132       6.58170446      -0.14218200      -0.04330766      -1.02079840      -0.14218200      -0.04330766      -1.02079840
H        5.27624756       7.50067302       8.30501681       0.11154423      -0.02888994      -0.72756872       0.11154423      -0.02888994      -0.72756872
H        6.36920266       5.54162852       6.66704927       0.30983979       0.51063703       1.30163820       0.30983979       0.51063703       1.30163820
H        6.37518375       5.57853999       8.42771903       0.15253969       0.12667594       0.53828796       0.15253969       0.12667594       0.53828796
H        8.56769031       5.57185589       8.32600210       0.16951823       0.11254824      -0.88331252       0.16951823       0.11254824      -0.88331252
H        8.56959465       5.55664636       6.58662919       0.33979134      -0.12808465      -1.04779653       0.33979134      -0.12808465      -1.04779653
18
Lattice="14.99999999685098 0.0 0.0 0.0 14.99999999685098 0.0 0.0 0.0 14.99999999685098" Properties=species:S:1:pos:R:3:forces_eV_per_au:R:3:forces:R:3 energy_eV=-1122.616962261958 energy=-1122.616962261958 free_energy=-1122.616962261958 pbc="T T T"
C        9.04934830       7.49694711       7.59618710      -0.80956942      -0.13329781      -4.32919008      -0.80956942      -0.13329781      -4.32919008
C        8.25580283       8.84085301       7.41450610       1.36818684       0.60869170       4.12744358       1.36818684       0.60869170       4.12744358
C        6.73664491       8.84350014       7.59460787      -0.57508636       0.19336470      -4.38483081      -0.57508636       0.19336470      -4.38483081
C        5.96963224       7.49818710       7.41234591       0.01192401       0.23329522       2.65286450       0.01192401       0.23329522       2.65286450
C        6.72729101       6.16231167       7.57695917      -0.40674929      -0.42375971      -2.50791393      -0.40674929      -0.42375971      -2.50791393
C        8.27199678       6.16386734       7.40893188      -0.27545719      -0.59105059       3.08035694      -0.27545719      -0.59105059       3.08035694
H        9.70685160       7.45792297       8.41626604       0.64643858       0.16457220       1.34110721       0.64643858       0.16457220       1.34110721
H        9.67666986       7.46239591       6.66014820       0.21778735       0.24946694       0.89784696       0.21778735       0.24946694       0.89784696
H        8.59956221       9.45421313       6.58900777       0.03028528      -0.18951936      -0.50838988       0.03028528      -0.18951936      -0.50838988
H        8.63423116       9.42299312       8.36894626      -0.44407194      -0.45762551      -1.63280452      -0.44407194      -0.45762551      -1.63280452
H        6.39823508       9.41217083       6.62618077       0.19775923      -0.33319466       1.69074844       0.19775923      -0.33319466       1.69074844
H        6.38844589       9.42472672       8.41959717      -0.15055197       0.25386147       0.87633917      -0.15055197       0.25386147       0.87633917
H        5.28861909       7.51990386       6.58586298      -0.05734871      -0.05183601      -1.00603641      -0.05734871      -0.05183601      -1.00603641
H        5.29125521       7.51783989       8.27518726      -0.36688048      -0.10813520       0.02393260      -0.36688048      -0.10813520       0.02393260
H        6.36134758       5.55070701       6.70914060       0.11865204       0.11557700       0.51005776       0.11865204       0.11557700       0.51005776
H        6.38002287       5.57977750       8.43045583       0.18287177       0.25803000       0.49304580       0.18287177       0.25803000       0.49304580
H        8.57058676       5.56602788       8.31742907       0.18425579       0.04416281      -0.81492477       0.18425579       0.04416281      -0.81492477
H        8.57647417       5.56379758       6.55961696       0.12755397       0.16739681      -0.50965230       0.12755397       0.16739681      -0.50965230
18
Lattice="14.99999999685098 0.0 0.0 0.0 14.99999999685098 0.0 0.0 0.0 14.99999999685098" Properties=species:S:1:pos:R:3:forces_eV_per_au:R:3:forces:R:3 energy_eV=-1122.7918903710238 energy=-1122.7918903710238 free_energy=-1122.7918903710238 pbc="T T T"
C        9.04936584       7.50604800       7.59912494      -0.34846881      -0.72901522      -3.98378551      -0.34846881      -0.72901522      -3.98378551
C        8.25863474       8.83531578       7.42547958       1.16028615       0.67118262       3.12551065       1.16028615       0.67118262       3.12551065
C        6.73564615       8.84117262       7.59191700      -0.65331551       0.49439331      -3.24488414      -0.65331551       0.49439331      -3.24488414
C        5.96415836       7.50414794       7.41611557      -0.08952761      -0.03827524       1.43315990      -0.08952761      -0.03827524       1.43315990
C        6.73297564       6.16250971       7.57193148      -0.69289019      -0.41157242      -2.02979467      -0.69289019      -0.41157242      -2.02979467
C        8.26683235       6.16392110       7.40596530       0.31672854      -0.91886933       1.57180175       0.31672854      -0.91886933       1.57180175
H        9.70909189       7.45504222       8.43867281       0.28863744       0.18240460       0.79849980       0.28863744       0.18240460       0.79849980
H        9.67752920       7.45916983       6.65240572       0.12501963       0.30134846       1.16335502       0.12501963       0.30134846       1.16335502
H        8.58404446       9.43671157       6.56540860      -0.01151854      -0.35109031      -0.03694547      -0.01151854      -0.35109031      -0.03694547
H        8.63328936       9.38869176       8.35953719      -0.29759208       0.00881708      -1.24525237      -0.29759208       0.00881708      -1.24525237
H        6.40448740       9.41002530       6.64913987       0.09015805      -0.13452269       1.33192091       0.09015805      -0.13452269       1.33192091
H        6.38560660       9.42616817       8.44426277       0.09643411      -0.15048821       0.24048145       0.09643411      -0.15048821       0.24048145
H        5.28324795       7.51604927       6.54993633       0.45694108      -0.02619748      -0.10417493       0.45694108      -0.02619748      -0.10417493
H        5.30693388       7.52369444       8.27739386      -0.71438307      -0.14654080       0.24034749      -0.71438307      -0.14654080       0.24034749
H        6.37931306       5.54959220       6.70905146      -0.03739412       0.05678256       0.41921554      -0.03739412       0.05678256       0.41921554
H        6.38032033       5.58258000       8.44049745       0.30223858       0.40258796       0.17754007       0.30223858       0.40258796       0.17754007
H        8.57187264       5.54466259       8.27229472       0.32157276      -0.10769014      -0.31693449       0.32157276      -0.10769014      -0.31693449
H        8.59354147       5.55132513       6.51587172      -0.31292639       0.89674550       0.45993899      -0.31292639       0.89674550       0.45993899
18
Lattice="14.99999999685098 0.0 0.0 0.0 14.99999999685098 0.0 0.0 0.0 14.99999999685098" Properties=species:S:1:pos:R:3:forces_eV_per_au:R:3:forces:R:3 energy_eV=-1122.8215358131763 energy=-1122.8215358131763 free_energy=-1122.8215358131763 pbc="T T T"
C        9.05107365       7.50376102       7.59109990      -0.64993657      -0.51700437      -3.22745900      -0.64993657      -0.51700437      -3.22745900
C        8.26311552       8.83862660       7.42861724       0.89793155       0.84466164       2.57825494       0.89793155       0.84466164       2.57825494
C        6.72947373       8.83793912       7.59475522      -0.30452994       0.23850864      -4.06723786      -0.30452994       0.23850864      -4.06723786
C        5.96678187       7.50012681       7.42225890       0.01359959       0.03666830       1.12893206       0.01359959       0.03666830       1.12893206
C        6.74094208       6.16043266       7.56634564      -0.77911831       0.31472231      -1.80838001      -0.77911831       0.31472231      -1.80838001
C        8.26333696       6.16709912       7.41039855       0.37233173      -0.82616744       1.53199130       0.37233173      -0.82616744       1.53199130
H        9.70973537       7.44850246       8.43605356       0.21118450       0.21249165       0.69889577       0.21118450       0.21249165       0.69889577
H        9.66671263       7.45003179       6.67024266       0.50118591       0.31938475       0.54701608       0.50118591       0.31938475       0.54701608
H        8.58290289       9.45126838       6.55233927      -0.12492425      -0.61358503       0.37447603      -0.12492425      -0.61358503       0.37447603
H        8.61887115       9.39484048       8.35864327      -0.15544813       0.03698840      -1.11978613      -0.15544813       0.03698840      -1.11978613
H        6.38247037       9.40871841       6.64447258       0.26818046      -0.26831056       1.47878232       0.26818046      -0.26831056       1.47878232
H        6.36721116       9.41212660       8.41861476      -0.05787502       0.29807956       0.93632867      -0.05787502       0.29807956       0.93632867
H        5.30030524       7.51931912       6.55067731       0.37398007      -0.07610080      -0.24135485       0.37398007      -0.07610080      -0.24135485
H        5.28978676       7.53687863       8.25996807      -0.75413618      -0.27116654       0.46508916      -0.75413618      -0.27116654       0.46508916
H        6.38304825       5.56067936       6.72538851      -0.18622346      -0.26387000      -0.15610710      -0.18622346      -0.26387000      -0.15610710
H        6.37676876       5.59681275       8.41485850       0.18125763       0.03067789       0.75485223       0.18125763       0.03067789       0.75485223
H        8.57164938       5.57125940       8.28564320       0.34712927      -0.28301264      -0.26962850       0.34712927      -0.28301264      -0.26962850
H        8.57508086       5.55440494       6.52251728      -0.15458861       0.78703370       0.39533462      -0.15458861       0.78703370       0.39533462
18
Lattice="14.99999999685098 0.0 0.0 0.0 14.99999999685098 0.0 0.0 0.0 14.99999999685098" Properties=species:S:1:pos:R:3:forces_eV_per_au:R:3:forces:R:3 energy_eV=-1122.8212819309647 energy=-1122.8212819309647 free_energy=-1122.8212819309647 pbc="T T T"
C        9.06077213       7.49969716       7.59220054      -1.22882379      -0.30103813      -2.87772958      -1.22882379      -0.30103813      -2.87772958
C        8.25704085       8.84309675       7.43643388       1.04165211       0.19096200       2.14335079       1.04165211       0.19096200       2.14335079
C        6.73011485       8.84144236       7.59230086      -0.05932718      -0.35899285      -4.52427510      -0.05932718      -0.35899285      -4.52427510
C        5.96511373       7.49819853       7.41975583       0.38691297       0.15328171       0.48315091       0.38691297       0.15328171       0.48315091
C        6.73891696       6.15805887       7.56176067      -1.13221279      -0.10734639      -0.96917965      -1.13221279      -0.10734639      -0.96917965
C        8.26215859       6.16867105       7.41152274       0.33863743      -0.76050506       0.77706142       0.33863743      -0.76050506       0.77706142
H        9.68219240       7.44129092       8.46044066       0.34063672       0.22061351       0.75333143       0.34063672       0.22061351       0.75333143
H        9.68469437       7.45209294       6.69007112       0.64380346       0.30206374       0.33489210       0.64380346       0.30206374       0.33489210
H        8.57742151       9.43780354       6.56305426      -0.02412775      -0.39780751       0.10712604      -0.02412775      -0.39780751       0.10712604
H        8.61444037       9.38838268       8.34447220      -0.00982881       0.29323483      -0.65268251      -0.00982881       0.29323483      -0.65268251
H        6.37528040       9.40395694       6.65314215       0.29284994      -0.18495976       1.22172163       0.29284994      -0.18495976       1.22172163
H        6.40097593       9.43471115       8.38677369      -0.50937616       0.64615653       1.70149385      -0.50937616       0.64615653       1.70149385
H        5.31562326       7.52298520       6.52292100       0.42383890      -0.08875988       0.15695582       0.42383890      -0.08875988       0.15695582
H        5.32049430       7.52132386       8.26130679      -1.27876413      -0.17857906       0.80037696      -1.27876413      -0.17857906       0.80037696
H        6.38018995       5.55580815       6.72060351      -0.16943030      -0.25702521      -0.04580806      -0.16943030      -0.25702521      -0.04580806
H        6.34969150       5.59357040       8.44908926       0.63459120       0.52282046      -0.22934394       0.63459120       0.52282046      -0.22934394
H        8.55370134       5.58069306       8.27600972       0.56212311      -0.60301702       0.09781016       0.56212311      -0.60301702       0.09781016
H        8.57706723       5.55816919       6.50558753      -0.25315570       0.90889782       0.72174851      -0.25315570       0.90889782       0.72174851
18
Lattice="14.99999999685098 0.0 0.0 0.0 14.99999999685098 0.0 0.0 0.0 14.99999999685098" Properties=species:S:1:pos:R:3:forces_eV_per_au:R:3:forces:R:3 energy_eV=-1122.9740975252737 energy=-1122.9740975252737 free_energy=-1122.9740975252737 pbc="T T T"
C        9.05353571       7.49717559       7.59308226      -0.50553262      -0.15079006      -2.69667713      -0.50553262      -0.15079006      -2.69667713
C        8.25759503       8.84309989       7.43866049       0.85034326      -0.07434088       2.00447522       0.85034326      -0.07434088       2.00447522
C        6.73415000       8.83302468       7.58708297      -0.44675514       0.19461657      -3.32567926      -0.44675514       0.19461657      -3.32567926
C        5.96747078       7.49339529       7.41955779      -0.27520265       0.36254586       1.36092476      -0.27520265       0.36254586       1.36092476
C        6.74223640       6.16751523       7.56134441      -1.14634511      -0.27381992      -1.42215378      -1.14634511      -0.27381992      -1.42215378
C        8.26012034       6.17420156       7.41536373       0.57744432      -1.21528333       1.03469676       0.57744432      -1.21528333       1.03469676
H        9.68584437       7.44640453       8.47021993       0.06893796       0.21674657       0.39523666       0.06893796       0.21674657       0.39523666
H        9.69673466       7.45839606       6.68632320       0.36089855       0.26999231       0.65385313       0.36089855       0.26999231       0.65385313
H        8.55719399       9.42236292       6.55807193       0.12476535      -0.26013316      -0.07130620       0.12476535      -0.26013316      -0.07130620
H        8.61332603       9.39608775       8.33075385       0.07397269       0.37366742      -0.45339682       0.07397269       0.37366742      -0.45339682
H        6.38001079       9.37673279       6.65818734       0.21769376       0.03370768       0.85277733       0.21769376       0.03370768       0.85277733
H        6.39002549       9.46600174       8.38091195      -0.19680895       0.01951904       0.96514250      -0.19680895       0.01951904       0.96514250
H        5.34284721       7.52283996       6.51091107       0.27693352      -0.10136266       0.10290635       0.27693352      -0.10136266       0.10290635
H        5.28547750       7.51749704       8.27670427      -0.51389796      -0.18523513      -0.16086853      -0.51389796      -0.18523513      -0.16086853
H        6.36176429       5.55011464       6.72807614       0.03258051      -0.09043881       0.09489093       0.03258051      -0.09043881       0.09489093
H        6.36091648       5.61862005       8.43256612       0.44670706       0.19501406       0.33215079       0.44670706       0.19501406       0.33215079
H        8.56785556       5.55549702       8.27727635       0.32641055      -0.19303380      -0.29455252       0.32641055      -0.19303380      -0.29455252
H        8.57796518       5.56920048       6.51015715      -0.27214484       0.87862848       0.62757929      -0.27214484       0.87862848       0.62757929
18
Lattice="14.99999999685098 0.0 0.0 0.0 14.99999999685098 0.0 0.0 0.0 14.99999999685098" Properties=species:S:1:pos:R:3:forces_eV_per_au:R:3:forces:R:3 energy_eV=-1122.9587166987146 energy=-1122.9587166987146 free_energy=-1122.9587166987146 pbc="T T T"
C        9.05670474       7.50251879       7.58790035      -0.95367436      -0.30206014      -3.17890938      -0.95367436      -0.30206014      -3.17890938
C        8.25334090       8.84157895       7.44183591       1.01659234      -0.15593715       1.70366618       1.01659234      -0.15593715       1.70366618
C        6.73494787       8.83054494       7.58383642      -0.81992274       0.68424846      -3.27185244      -0.81992274       0.68424846      -3.27185244
C        5.96860555       7.49136991       7.42857435      -0.58149406       0.31720008       1.53796192      -0.58149406       0.31720008       1.53796192
C        6.74173565       6.16427922       7.56503079      -0.83130142       0.04253916      -1.58964701      -0.83130142       0.04253916      -1.58964701
C        8.25919419       6.18016925       7.41341193       0.62688303      -1.28922723       1.00653392       0.62688303      -1.28922723       1.00653392
H        9.67787882       7.44713457       8.45265966       0.46026012       0.20177221       0.80696978       0.46026012       0.20177221       0.80696978
H        9.67847648       7.44644141       6.66390555       0.40956182       0.38219191       0.77325670       0.40956182       0.38219191       0.77325670
H        8.55644920       9.40056247       6.55051708       0.09556456      -0.16381424      -0.04689461       0.09556456      -0.16381424      -0.04689461
H        8.61208736       9.39955898       8.32174320       0.11904439       0.45637518      -0.31342879       0.11904439       0.45637518      -0.31342879
H        6.38441498       9.39413004       6.63375713       0.30180714      -0.30944024       1.35031690       0.30180714      -0.30944024       1.35031690
H        6.39042580       9.46817599       8.39007200      -0.08950190      -0.17877369       0.59989827      -0.08950190      -0.17877369       0.59989827
H        5.35584234       7.51536188       6.51494968       0.19260828      -0.08330503       0.06116886       0.19260828      -0.08330503       0.06116886
H        5.26272484       7.50561241       8.28740588      -0.14969451      -0.11844789      -0.49767944      -0.14969451      -0.11844789      -0.49767944
H        6.37715601       5.55180629       6.72883145      -0.10634545      -0.17358649       0.00243226      -0.10634545      -0.17358649       0.00243226
H        6.37546350       5.61994261       8.42948400       0.28720148      -0.00916393       0.62217123       0.28720148      -0.00916393       0.62217123
H        8.57468521       5.56038332       8.26701522       0.33342914      -0.23146356      -0.15884841       0.33342914      -0.23146356      -0.15884841
H        8.58126107       5.56623012       6.51430021      -0.31101786       0.93089233       0.59288379      -0.31101786       0.93089233       0.59288379
18
Lattice="14.99999999685098 0.0 0.0 0.0 14.99999999685098 0.0 0.0 0.0 14.99999999685098" Properties=species:S:1:pos:R:3:forces_eV_per_au:R:3:forces:R:3 energy_eV=-1123.0315804852344 energy=-1123.0315804852344 free_energy=-1123.0315804852344 pbc="T T T"
C        9.05669277       7.50465714       7.58025411      -0.89134233      -0.36091629      -2.99587563      -0.89134233      -0.36091629      -2.99587563
C        8.24970940       8.84132029       7.44195099       1.13148722      -0.12147023       1.48153855       1.13148722      -0.12147023       1.48153855
C        6.73290469       8.83399971       7.57612461      -0.55856316       0.42505837      -2.10724376      -0.55856316       0.42505837      -2.10724376
C        5.97153062       7.48938867       7.44002808      -0.60848010       0.49198779       1.90992033      -0.60848010       0.49198779       1.90992033
C        6.74058324       6.16282290       7.57118634      -0.88001585      -0.12514382      -1.83041436      -0.88001585      -0.12514382      -1.83041436
C        8.25837249       6.17619133       7.40871853       0.82029915      -1.40223338       1.08131626       0.82029915      -1.40223338       1.08131626
H        9.69731246       7.46157097       8.43475756       0.31443949       0.14215321       0.81654046       0.31443949       0.14215321       0.81654046
H        9.69137897       7.45849230       6.67010798       0.34253882       0.31992185       0.56579979       0.34253882       0.31992185       0.56579979
H        8.54577245       9.42296554       6.56043880       0.13557427      -0.28823095      -0.09321766       0.13557427      -0.28823095      -0.09321766
H        8.62248564       9.39818863       8.30893676       0.08426431       0.50399150      -0.08389432       0.08426431       0.50399150      -0.08389432
H        6.40937826       9.39678622       6.66349511      -0.08805720      -0.02321423       0.58216100      -0.08805720      -0.02321423       0.58216100
H        6.39711717       9.47451931       8.39239139      -0.05013214      -0.30191719       0.47210468      -0.05013214      -0.30191719       0.47210468
H        5.37927707       7.52538686       6.53165653      -0.11605523      -0.14833465      -0.34387194      -0.11605523      -0.14833465      -0.34387194
H        5.24312480       7.50181077       8.29477319       0.12622548      -0.08438386      -0.68621509       0.12622548      -0.08438386      -0.68621509