18
Lattice="15.00065028 0.0 0.0 0.0 15.00065028 0.0 0.0 0.0 15.00065028" Properties=species:S:1:pos:R:3:forces_ryd_per_au:R:3 energy_ryd=-82.43037945 pbc="F F F"
C        9.04432332       7.49710183       7.59975314      -0.03513336       0.00000002      -0.24997546
C        8.27524454       8.83636883       7.40021968      -0.01725301      -0.03025396       0.24984427
C        6.73288822       8.83320067       7.59801310       0.01725308      -0.03025393      -0.24984429
C        5.95494356       7.50607463       7.40735407       0.03513335      -0.00000000       0.24997543
C        6.72730492       6.16398749       7.59200331       0.01725310       0.03025392      -0.24984429
C        8.27137318       6.16125244       7.40508273      -0.01725299       0.03025397       0.24984427
H        9.70557717       7.50786286       8.37575927       0.06193831       0.00000000       0.10257328
H        9.69597550       7.49141790       6.62972171      -0.01706098       0.00000000       0.06050924
H        8.57523188       9.42687628       6.60913257       0.03096721       0.05365209      -0.10258726
H        8.58761706       9.41245182       8.33612735      -0.00853308      -0.01477223      -0.06050709
H        6.38972100       9.44548430       6.65914664       0.00853309      -0.01477216       0.06050700
H        6.40641012       9.42897413       8.38595217      -0.03096722       0.05365224       0.10258738
H        5.26589061       7.49771078       6.64420618      -0.06193838       0.00000001      -0.10257338
H        5.31238526       7.48678009       8.34413181       0.01706088       0.00000000      -0.06050912
H        6.38927940       5.58003750       6.63729163       0.00853309       0.01477216       0.06050699
H        6.39814301       5.58233848       8.36207781      -0.03096722      -0.05365224       0.10258739
H        8.59807410       5.56351518       8.35917552      -0.00853308       0.01477223      -0.06050708
H        8.60326917       5.60055205       6.62836728       0.03096721      -0.05365210      -0.10258727
18
Lattice="15.00065028 0.0 0.0 0.0 15.00065028 0.0 0.0 0.0 15.00065028" Properties=species:S:1:pos:R:3:forces_ryd_per_au:R:3 energy_ryd=-82.45569367 pbc="F F F"
C        9.04583423       7.49436135       7.59485297      -0.03617165       0.00233141      -0.24115363
C        8.27891640       8.83677646       7.40438625      -0.02050017      -0.02550470       0.20456467
C        6.73659262       8.83108192       7.59209319      -0.00227931       0.00132017      -0.20739869
C        5.95274758       7.51175546       7.41839069       0.03718360      -0.00815860       0.20523121
C        6.72600788       6.16397266       7.57973461       0.01659188       0.02810722      -0.23700902
C        8.27129917       6.15866182       7.41471677      -0.02179042       0.03084701       0.24559740
H        9.71532403       7.51533232       8.40721136       0.05934471      -0.00038128       0.09599626
H        9.68016350       7.48338380       6.63957662      -0.01152826       0.00093099       0.06041189
H        8.55282652       9.44756958       6.56654061       0.02623119       0.03453022      -0.08132200
H        8.57158258       9.41030189       8.29783405       0.00221800      -0.00443955      -0.04137901
H        6.38671389       9.47117325       6.69604745       0.00967234      -0.02140878       0.05504935
H        6.41305644       9.44992057       8.42195372      -0.01804778       0.02687814       0.07322288
H        5.23159094       7.49587338       6.63378881      -0.04688609       0.00157479      -0.08798856
H        5.33387493       7.47499283       8.31544126       0.00129375       0.00398812      -0.03309257
H        6.38575888       5.57764546       6.65334882       0.00928622       0.01605704       0.05575301
H        6.39412656       5.56712322       8.38098534      -0.02983904      -0.04919344       0.09862297
H        8.59001349       5.54576971       8.33902839      -0.00679530       0.01834353      -0.05876658
H        8.60914461       5.60131519       6.59849810       0.03201634      -0.05582230      -0.10633958
18
Lattice="15.00065028 0.0 0.0 0.0 15.00065028 0.0 0.0 0.0 15.00065028" Properties=species:S:1:pos:R:3:forces_ryd_per_au:R:3 energy_ryd=-82.50480724 pbc="F F F"
C        9.04718898       7.49165396       7.58635835      -0.01036168       0.00585541      -0.17848588
C        8.28231401       8.83701849       7.41090476      -0.01973655      -0.00918013       0.11533574
C        6.73995059       8.82965774       7.58336508      -0.02351869       0.03912511      -0.13628073
C        5.95091909       7.51730509       7.43197615       0.02232684      -0.01537547       0.11513011
C        6.72472712       6.16401714       7.56377461       0.00280319       0.00308990      -0.17235123
C        8.27103416       6.15609033       7.42814735      -0.00976575       0.00490680       0.18177780
H        9.73116273       7.52263426       8.45130171       0.02520149      -0.00167495       0.05085825
H        9.66383731       7.47552353       6.66108759      -0.00022501       0.00177394       0.04933627
H        8.53300187       9.46820203       6.51522078       0.01404345      -0.00289009      -0.03247361
H        8.55881792       9.41124786       8.25620272       0.01622572       0.01370888      -0.00962740
H        6.38540439       9.49251163       6.74350540       0.00774917      -0.02214131       0.04113483
H        6.41989857       9.46891662       8.46521725       0.00000635      -0.01112283       0.02694804
H        5.19466089       7.49483511       6.61261602      -0.00706307       0.00370139      -0.04535616
H        5.35066088       7.46438328       8.28769772      -0.02314111       0.00660707       0.00775086
H        6.38368499       5.57787207       6.67934450       0.00672508       0.01166839       0.04109502
H        6.38692023       5.54750692       8.41350432      -0.01333432      -0.01716955       0.05667387
H        8.58118115       5.53122224       8.30742920      -0.00232637       0.01613114      -0.04714482
H        8.61850782       5.59587625       6.55293493       0.01439124      -0.02701371      -0.06432098
18
Lattice="15.00065028 0.0 0.0 0.0 15.00065028 0.0 0.0 0.0 15.00065028" Properties=species:S:1:pos:R:3:forces_ryd_per_au:R:3 energy_ryd=-82.52535879 pbc="F F F"
C        9.04844661       7.48982077       7.57820831       0.01217378       0.01084563      -0.09000324
C        8.28436709       8.83710782       7.41607037      -0.02640915      -0.00482585       0.01277215
C        6.74179758       8.82979162       7.57563193      -0.03552101       0.06250173      -0.05933031
C        5.94983732       7.52108553       7.44244238       0.01540910      -0.02105570       0.01112393
C        6.72358518       6.16369570       7.55010484      -0.00907742      -0.01835976      -0.08413848
C        8.27089286       6.15377808       7.43999210       0.00303402      -0.01923266       0.08846255
H        9.73996865       7.52723975       8.48381849      -0.01365105      -0.00392465      -0.00326499
H        9.65580403       7.47012701       6.68308092       0.01860074       0.00232005       0.02500636
H        8.51931786       9.47524944       6.48020374       0.00553345      -0.03698142       0.01608902
H        8.55679485       9.42115901       8.23232646       0.03302156       0.03991627       0.03271172
H        6.38489705       9.50504315       6.78354267       0.00208650      -0.01549238       0.01834552
H        6.42822165       9.47348456       8.49475258       0.01371538      -0.04238344      -0.01349669
H        5.17430922       7.49546020       6.59630651       0.03261270       0.00611299      -0.00144625
H        5.35076643       7.45804833       8.28008929      -0.05451240       0.00725059       0.05783401
H        6.38208434       5.57803042       6.70242766      -0.00015519      -0.00005486       0.01504965
H        6.38268975       5.53712509       8.43941101       0.00523909       0.01918252       0.00594126
H        8.57579310       5.52171169       8.27798462       0.00554009       0.00636451      -0.02430772
H        8.62381256       5.59357325       6.51686129      -0.00764018       0.00781644      -0.00734848
18
Lattice="15.00065028 0.0 0.0 0.0 15.00065028 0.0 0.0 0.0 15.00065028" Properties=species:S:1:pos:R:3:forces_ryd_per_au:R:3 energy_ryd=-82.51734115 pbc="F F F"
C        9.04976243       7.48857695       7.57101808       0.01394388       0.01454162      -0.02122372
C        8.28544778       8.83704700       7.41951289      -0.03243830      -0.00698811      -0.04420025
C        6.74266590       8.83110303       7.56910986      -0.03455489       0.06206297      -0.00460469
C        5.94913360       7.52375559       7.45033893       0.01014599      -0.02455605      -0.04189575
C        6.72243762       6.16304184       7.53841641      -0.01021973      -0.01998700      -0.01638578
C        8.27087574       6.15143477       7.45014887       0.00519356      -0.02171125       0.01568911
H        9.73948221       7.52978505       8.50291768      -0.03390340      -0.00558082      -0.03450643
H        9.65776805       7.46615462       6.70083544       0.03752656       0.00224317      -0.00234912
H        8.50873185       9.46912374       6.46041620       0.00346088      -0.05202886       0.04054575
H        8.56465950       9.44178324       8.22494522       0.04143624       0.05372593       0.05416689
H        6.38322447       9.51466557       6.81566388      -0.00542727      -0.00348193      -0.00514273
H        6.43945492       9.46455045       8.51186215       0.01870292      -0.05526546      -0.03237729
H        5.16931355       7.49769603       6.58778368       0.05179517       0.00744664       0.02189387
H        5.33557926       7.45447074       8.29157542      -0.06629288       0.00734465       0.07731839
H        6.37877542       5.57483690       6.71892101      -0.00858172      -0.01443146      -0.01175717
H        6.38259839       5.53729380       8.45547707       0.01487694       0.03821403      -0.02380554
H        8.57454139       5.51202487       8.25373854       0.01402029      -0.00770430       0.00107743
H        8.62368989       5.59768426       6.49320196      -0.01968424       0.02615623       0.02755704
18
Lattice="15.00065028 0.0 0.0 0.0 15.00065028 0.0 0.0 0.0 15.00065028" Properties=species:S:1:pos:R:3:forces_ryd_per_au:R:3 energy_ryd=-82.51309736 pbc="F F F"
C        9.05122149       7.48764417       7.56427772       0.00691902       0.01654863       0.02593822
C        8.28594379       8.83699395       7.42187059      -0.03063955       0.00042441      -0.05738291
C        6.74300441       8.83339448       7.56321364      -0.02772325       0.05019758       0.03479152
C        5.94828704       7.52589704       7.45739330      -0.00712586      -0.02833057      -0.04648957
C        6.72114978       6.16213623       7.52724696      -0.00682808      -0.01277655       0.03118375
C        8.27089245       6.14882489       7.45966538       0.00175608      -0.01291545      -0.03688669
H        9.72937107       7.53085255       8.51084564      -0.04175573      -0.00649299      -0.04907832
H        9.67158984       7.46259063       6.71315806       0.05140108       0.00189630      -0.02412791
H        8.49901199       9.45010349       6.45192147       0.00408917      -0.05577088       0.04962747
H        8.58155269       9.47340857       8.22832363       0.03893836       0.04710126       0.04692665
H        6.37856781       9.52660844       6.84203432      -0.01289864       0.00977061      -0.02595981
H        6.45517629       9.44224881       8.52015142       0.01912796      -0.05773607      -0.03881337
H        5.17763946       7.50176706       6.58659456       0.05797103       0.00789496       0.03209388
H        5.30808295       7.45293577       8.31717085      -0.05294768       0.00897645       0.06087569
H        6.37186318       5.56555733       6.72798372      -0.01553514      -0.02631371      -0.03276307
H        6.38681339       5.54794014       8.46274497       0.01869230       0.04546733      -0.03868472
H        8.57817265       5.49735842       8.23469470       0.02123094      -0.02130935       0.02333364
H        8.61788150       5.60951335       6.47983712      -0.02467202       0.03336805       0.04541552
18
Lattice="15.00065028 0.0 0.0 0.0 15.00065028 0.0 0.0 0.0 15.00065028" Properties=species:S:1:pos:R:3:forces_ryd_per_au:R:3 energy_ryd=-82.52072535 pbc="F F F"
C        9.05263197       7.48707752       7.55882693       0.00051473       0.01700040       0.05271051
C        8.28599884       8.83727224       7.42330749      -0.02177658       0.01702578      -0.04273107
C        6.74296198       8.83625452       7.55875746      -0.01899887       0.03415995       0.06224336
C        5.94686829       7.52732815       7.46369675      -0.03134867      -0.03229412      -0.02420165
C        6.71983948       6.16116316       7.51771315      -0.00383357      -0.00536766       0.06142058
C        8.27085887       6.14627887       7.46738299      -0.00256630      -0.00211148      -0.07329289
H        9.71001327       7.53031230       8.50628970      -0.04189040      -0.00679170      -0.05279964
H        9.69772651       7.45955840       6.71710727       0.05585233       0.00168743      -0.03419519
H        8.49111458       9.41984774       6.45496177       0.00621730      -0.05207279       0.04858287
H        8.60420589       9.50933871       8.23617540       0.02793903       0.02418817       0.02000237
H        6.36982259       9.54277456       6.85781678      -0.01855489       0.02040780      -0.04136086
H        6.47409664       9.40856763       8.51956762       0.01662026      -0.05326914      -0.03706584
H        5.19842113       7.50744759       6.59327102       0.05550696       0.00769394       0.03392934
H        5.27615870       7.45415594       8.34722826      -0.02400375       0.01169004       0.02382058
H        6.36095754       5.54941251       6.72667607      -0.01853447      -0.03141035      -0.04342936
H        6.39520938       5.56860835       8.45948234       0.01887912       0.04534791      -0.04443689
H        8.58749952       5.47640715       8.22516641       0.02535092      -0.02982910       0.03798197
H        8.60645970       5.62868943       6.47917938      -0.02537314       0.03394492       0.05282179
18
Lattice="15.00065028 0.0 0.0 0.0 15.00065028 0.0 0.0 0.0 15.00065028" Properties=species:S:1:pos:R:3:forces_ryd_per_au:R:3 energy_ryd=-82.53838633 pbc="F F F"
C        9.05418227       7.48676454       7.55389350       0.00073489       0.01572854       0.05185973
C        8.28584641       8.83817949       7.42456222      -0.01098415       0.03124618      -0.01603854
C        6.74267134       8.83978494       7.55524010      -0.01264114       0.02149808       0.06907624
C        5.94440833       7.52822258       7.47065028      -0.04731442      -0.03434727       0.00459056
C        6.71832433       6.16003188       7.50863008      -0.00455986      -0.00370098       0.06721791
C        8.27075006       6.14354689       7.47414646      -0.00373595       0.00210828      -0.08488854
H        9.68089404       7.52825793       8.49085025      -0.03488298      -0.00636248      -0.04547333
H        9.73675537       7.45671855       6.71529163       0.04585058       0.00200678      -0.02654551
H        8.48470628       9.37735104       6.46685745       0.00951483      -0.04143236       0.03725708
H        8.63209963       9.54785075       8.24252424       0.01398897      -0.00268060      -0.00955713
H        6.35598190       9.56530510       6.86480796      -0.01873437       0.02137364      -0.04425332
H        6.49736479       9.36214318       8.51277775       0.01155712      -0.04228858      -0.02670846
H        5.23135897       7.51522197       6.60679145       0.04472583       0.00689183       0.02712235
H        5.24249147       7.45862803       8.37717164       0.00477336       0.01364164      -0.01211121
H        6.34567475       5.52608996       6.71648020      -0.01478200      -0.02491155      -0.03806925
H        6.40795262       5.60001305       8.44651507       0.01562210       0.03860830      -0.04085696
H        8.60299414       5.44754836       8.22343073       0.02316322      -0.02622125       0.03750211
H        8.58888343       5.65621876       6.48995539      -0.02229603       0.02884182       0.04987628
18
Lattice="15.00065028 0.0 0.0 0.0 15.00065028 0.0 0.0 0.0 15.00065028" Properties=species:S:1:pos:R:3:forces_ryd_per_au:R:3 energy_ryd=-82.5564668 pbc="F F F"
C        9.05553267       7.48675713       7.55041998       0.00438332       0.01283134       0.02865475
C        8.28568819       8.83960171       7.42589001      -0.00174660       0.03524902       0.01569339
C        6.74226563       8.84289945       7.55341544      -0.00871166       0.01201560       0.05414070
C        5.94146713       7.52829930       7.47697098      -0.04824829      -0.03379620       0.03330273
C        6.71693962       6.15900676       7.50223103      -0.00764180      -0.00525240       0.05255739
C        8.27062363       6.14132018       7.47822790      -0.00194481       0.00018777      -0.07448144
H        9.65251296       7.52539470       8.47228801      -0.02000103      -0.00514752      -0.02585616
H        9.77408022       7.45505283       6.71232192       0.02370598       0.00283263      -0.00645548
H        8.48280345       9.33739182       6.47967326       0.01444693      -0.02285219       0.01347275
H        8.65485204       9.57306638       8.23992787      -0.00008520      -0.02701651      -0.03376267
H        6.34173540       9.58636529       6.86253459      -0.01279059       0.01157289      -0.03463672
H        6.51716377       9.31880842       8.50600828       0.00348588      -0.02358556      -0.00532221
H        5.26386926       7.52284059       6.62017284       0.02439204       0.00551923       0.01017075
H        5.22149970       7.46552089       8.39237022       0.02818228       0.01406980      -0.04013065
H        6.33196635       5.50505510       6.70344818      -0.00534577      -0.00865685      -0.02043366
H        6.42031775       5.63134928       8.42971325       0.00851390       0.02472866      -0.02697517
H        8.61903173       5.42154292       8.22754448       0.01470387      -0.01061361       0.02400317
H        8.57100940       5.68282096       6.50706124      -0.01529844       0.01791390       0.03605852
18
Lattice="15.00065028 0.0 0.0 0.0 15.00065028 0.0 0.0 0.0 15.00065028" Properties=species:S:1:pos:R:3:forces_ryd_per_au:R:3 energy_ryd=-82.56167515 pbc="F F F"
C        9.05695183       7.48693159       7.54694060       0.00415153       0.00940251      -0.00183322
C        8.28556597       8.84152604       7.42797700       0.00179175       0.02659385       0.03984908
C        6.74172667       8.84611318       7.55211667      -0.00706950       0.00650354       0.02639457
C        5.93789336       7.52777675       7.48424570      -0.03401099      -0.03095887       0.05212339
C        6.71539540       6.15791164       7.49641430      -0.00885930      -0.00407191       0.02729763
C        8.27048901       6.13908072       7.48131615      -0.00047884      -0.00163957      -0.04956735
H        9.62396380       7.52172632       8.45398765      -0.00177856      -0.00360012       0.00045039
H        9.81160028       7.45422506       6.71208481       0.00222690       0.00357512       0.01174964
H        8.48531954       9.29698381       6.48904478       0.01910766      -0.00342477      -0.01447437
H        8.67543121       9.58910349       8.22734435      -0.00859079      -0.03890235      -0.04343986
H        6.32666190       9.60659190       6.85593456      -0.00411572      -0.00283926      -0.01886158
H        6.53571940       9.27496429       8.50383898      -0.00466427      -0.00381247       0.01971436
H        5.29651099       7.53134719       6.63081022       0.00177209       0.00413546      -0.01141432
H        5.20952989       7.47530985       8.39562817       0.03837909       0.01282377      -0.05126015
H        6.31929361       5.48589924       6.68997168       0.00398802       0.00737732      -0.00241074
H        6.43246688       5.66415386       8.41172310      -0.00048044       0.00753090      -0.00577837
H        8.63603242       5.39744421       8.23336495       0.00477258       0.00731390       0.00755919
H        8.55187256       5.71011663       6.52722459      -0.00614122       0.00399295       0.01390172
18
Lattice="15.00065028 0.0 0.0 0.0 15.00065028 0.0 0.0 0.0 15.00065028" Properties=species:S:1:pos:R:3:forces_ryd_per_au:R:3 energy_ryd=-82.55416099 pbc="F F F"
C        9.05823029       7.48719648       7.54310951      -0.00130297       0.00541090      -0.03283651
C        8.28549914       8.84351962       7.43096904       0.00235045       0.01168220       0.05559206
C        6.74111963       8.84910810       7.55085480      -0.00578990       0.00221191      -0.00355966
C        5.93438767       7.52678432       7.49213510      -0.01152313      -0.02650034       0.06241405
C        6.71384334       6.15694835       7.49101884      -0.00690623       0.00220825      -0.00269930
C        8.27033807       6.13704991       7.48383803      -0.00141068       0.00136315      -0.01629104
H        9.60206792       7.51791646       8.44451494       0.01878979      -0.00190997       0.03184688
H        9.84221888       7.45439828       6.71772840      -0.01669776       0.00405186       0.02543829
H        8.49287643       9.26328318       6.48782173       0.02276570       0.01483521      -0.04266952
H        8.69118339       9.59395011       8.20560625      -0.01367917      -0.04290113      -0.04417585
H        6.31398784       9.62111597       6.84958859       0.00508858      -0.01760357      -0.00122896
H        6.54994570       9.23827760       8.51212798      -0.01223416       0.01557461       0.04462233
H        5.32162639       7.53980544       6.63253897      -0.02113296       0.00279521      -0.03490539
H        5.20787144       7.48668093       8.38659629       0.04052249       0.01032438      -0.05218658
H        6.31041173       5.47315549       6.68064142       0.01197542       0.02106133       0.01323383
H        6.44103093       5.69127652       8.40031977      -0.01126729      -0.01307078       0.02223138
H        8.65049759       5.38080751       8.23693537      -0.00499839       0.02387176      -0.00770903
H        8.53554923       5.73210179       6.54180266       0.00545021      -0.01340497      -0.01711698
18
Lattice="15.00065028 0.0 0.0 0.0 15.00065028 0.0 0.0 0.0 15.00065028" Properties=species:S:1:pos:R:3:forces_ryd_per_au:R:3 energy_ryd=-82.54406441 pbc="F F F"
C        9.05937872       7.48749562       7.53836394      -0.00648841       0.00182097      -0.04800355
C        8.28547607       8.84547754       7.43489910       0.00225049      -0.00147541       0.04906546
C        6.74041063       8.85211858       7.54928122      -0.00538546       0.00135934      -0.01635396
C        5.93106267       7.52538581       7.50102208       0.00869639      -0.02118565       0.05305152
C        6.71222643       6.15617743       7.48520346      -0.00364069       0.00977027      -0.02271566
C        8.27011554       6.13518144       7.48655620      -0.00373051       0.00802001       0.01061825
H        9.58773010       7.51394284       8.44747467       0.03246180      -0.00076980       0.05380939
H        9.86610796       7.45551547       6.73058150      -0.02873061       0.00409948       0.03137664
H        8.50555566       9.23522105       6.47388569       0.02234810       0.02394783      -0.05519293
H        8.70352408       9.58983444       8.17547954      -0.01456128      -0.03882081      -0.03674370
H        6.30406097       9.62926711       6.84615817       0.01172600      -0.02743287       0.01255491
H        6.56046273       9.20795451       8.53293830      -0.01587732       0.02704839       0.05447082
H        5.33880386       7.54861291       6.62333482      -0.03406052       0.00164691      -0.04742154
H        5.21416992       7.49964176       8.36763178       0.03450709       0.00707597      -0.04324747
H        6.30537118       5.46711228       6.67652074       0.01653338       0.02888230       0.02246461
H        6.44502787       5.71145945       8.39933145      -0.01968815      -0.02969717       0.04502380
H        8.66216187       5.37210102       8.23650886      -0.01193122       0.03415861      -0.01729109
H        8.52287207       5.74745335       6.54585260       0.01557090      -0.02844837      -0.04546549
18
Lattice="15.00065028 0.0 0.0 0.0 15.00065028 0.0 0.0 0.0 15.00065028" Properties=species:S:1:pos:R:3:forces_ryd_per_au:R:3 energy_ryd=-82.54206452 pbc="F F F"
C        9.06038754       7.48776652       7.53299156      -0.00584185      -0.00110211      -0.03811053
C        8.28550375       8.84715098       7.43901202       0.00259752      -0.01236373       0.01417261
C        6.73960581       8.85513182       7.54765314      -0.00580610       0.00375429      -0.00470655
C        5.92828409       7.52373514       7.51002016       0.02427008      -0.01471897       0.01640890
C        6.71060538       6.15568910       7.47909754      -0.00215453       0.01369041      -0.02200310
C        8.26981246       6.13362049       7.48957922      -0.00443302       0.01366269       0.01902718
H        9.58157547       7.50998042       8.46344117       0.03407118      -0.00035150       0.05674694
H        9.88153385       7.45747499       6.75017700      -0.03432473       0.00376816       0.03055587
H        8.52171695       9.21315690       6.44963065       0.01638863       0.02320558      -0.04618725
H        8.71305606       9.57969943       8.14109510      -0.01094714      -0.02653811      -0.02151173
H        6.29790415       9.62993856       6.84777380       0.01536237      -0.03164091       0.02155433
H        6.56726206       9.18522312       8.56327160      -0.01507573       0.02989465       0.04342471
H        5.34778150       7.55727839       6.60457352      -0.03385749       0.00027053      -0.04240446
H        5.22484724       7.51305464       8.34359198       0.01963818       0.00326683      -0.02393599
H        6.30454428       5.46838578       6.67837951       0.01777958       0.03114584       0.02553569
H        6.44366720       5.72249919       8.41041563      -0.02284943      -0.03764906       0.05229473
H        8.66987712       5.37240323       8.23118763      -0.01596422       0.03822082      -0.02128584
H        8.51536156       5.75403500       6.53608140       0.02114670      -0.03651540      -0.05957551
18
Lattice="15.00065028 0.0 0.0 0.0 15.00065028 0.0 0.0 0.0 15.00065028" Properties=species:S:1:pos:R:3:forces_ryd_per_au:R:3 energy_ryd=-82.54712673 pbc="F F F"
C        9.06136531       7.48796821       7.52771831      -0.00009270      -0.00317250      -0.00293306
C        8.28556560       8.84829497       7.44220995       0.00180817      -0.02487091      -0.04115068
C        6.73872386       8.85815796       7.54658525      -0.00519657       0.00518792       0.02652941
C        5.92631872       7.52198694       7.51792226       0.03788847      -0.00752021      -0.04318293
C        6.70896281       6.15545803       7.47325670      -0.00354442       0.01257167       0.00454907
C        8.26948005       6.13240158       7.49251315      -0.00197133       0.01534741      -0.00007209
H        9.58106277       7.50603739       8.48794188       0.02371095      -0.00041465       0.03904824
H        9.88893862       7.46009735       6.77461003      -0.03286935       0.00312343       0.02346170
H        8.53884052       9.19556878       6.42117696       0.00621084       0.01664811      -0.02127554
H        8.72172063       9.56834131       8.10771116      -0.00256455      -0.00658414       0.00001336
H        6.29548527       9.62379140       6.85498582       0.01544749      -0.02950798       0.02449150
H        6.57126177       9.16938961       8.59659934      -0.01129432       0.02707485       0.01681450
H        5.35110282       7.56532339       6.58131103      -0.02341800      -0.00160194      -0.02189696
H        5.23438533       7.52598020       8.32127402      -0.00360005      -0.00042634       0.00444626
H        6.30731440       5.47598214       6.68526143       0.01550690       0.02760131       0.02203430
H        6.43787331       5.72518973       8.43007749      -0.01941136      -0.03484541       0.03862228
H        8.67353516       5.38091244       8.22157226      -0.01663689       0.03565617      -0.01930636
H        8.51268340       5.75253010       6.51502835       0.02002672      -0.03426679      -0.05019299
18
Lattice="15.00065028 0.0 0.0 0.0 15.00065028 0.0 0.0 0.0 15.00065028" Properties=species:S:1:pos:R:3:forces_ryd_per_au:R:3 energy_ryd=-82.54804229 pbc="F F F"
C        9.06259136       7.48811677       7.52234572       0.00353241      -0.00466822       0.04506226
C        8.28561127       8.84885852       7.44409201      -0.00142516      -0.04090932      -0.09849690
C        6.73765458       8.86176000       7.54656410      -0.00129250       0.00097579       0.06430007
C        5.92499336       7.51990551       7.52520369       0.05180941      -0.00059122      -0.10732416
C        6.70691676       6.15539283       7.46726972      -0.00523084       0.01077852       0.04804481
C        8.26911194       6.13126754       7.49521526       0.00131752       0.01599286      -0.03991936
H        9.58237632       7.50126217       8.51961497       0.00833549      -0.00046178       0.01155522
H        9.89209664       7.46371892       6.80607935      -0.02434614       0.00224159       0.01101862
H        8.55799582       9.17702043       6.38894992      -0.00486169       0.00988309       0.00635435
H        8.73399216       9.55880482       8.07351967       0.00873232       0.01697934       0.02316446