18
Lattice="14.99999999685098 0.0 0.0 0.0 14.99999999685098 0.0 0.0 0.0 14.99999999685098" Properties=species:S:1:pos:R:3:forces_eV_per_au:R:3:forces:R:3 energy_eV=-1121.5223488351096 energy=-1121.5223488351096 free_energy=-1121.5223488351096 pbc="T T T"
C        9.04202400       7.50000000       7.60000050      -0.90331622      -0.00000051      -6.42712644      -0.90331622      -0.00000051      -6.42712644
C        8.27101200       8.83543200       7.39999950      -0.44359371      -0.77786206       6.42375444      -0.44359371      -0.77786206       6.42375444
C        6.72898800       8.83543200       7.60000050       0.44359500      -0.77786104      -6.42375392       0.44359500      -0.77786104      -6.42375392
C        5.95797600       7.50000000       7.39999950       0.90331647      -0.00000051       6.42712695       0.90331647      -0.00000051       6.42712695
C        6.72898800       6.16456800       7.60000050       0.44359526       0.77786078      -6.42375392       0.44359526       0.77786078      -6.42375392
C        8.27101200       6.16456800       7.39999950      -0.44359397       0.77786206       6.42375470      -0.44359397       0.77786206       6.42375470
H        9.70966350       7.50000000       8.36604900       1.59249502      -0.00000026       2.63726356       1.59249502      -0.00000026       2.63726356
H        9.70966350       7.50000000       6.63395100      -0.43865642      -0.00000026       1.55575575      -0.43865642      -0.00000026       1.55575575
H        8.60483100       9.41362500       6.63395100       0.79619892       1.37945135      -2.63762557       0.79619892       1.37945135      -2.63762557
H        8.60483100       9.41362500       8.36604900      -0.21939480      -0.37981004      -1.55569919      -0.21939480      -0.37981004      -1.55569919
H        6.39516900       9.41362500       6.63395100       0.21939506      -0.37980876       1.55569842       0.21939506      -0.37980876       1.55569842
H        6.39516900       9.41362500       8.36604900      -0.79619789       1.37945161       2.63762583      -0.79619789       1.37945161       2.63762583
H        5.29033650       7.50000000       6.63395100      -1.59249913      -0.00000026      -2.63726716      -1.59249913      -0.00000026      -2.63726716
H        5.29033650       7.50000000       8.36604900       0.43865437      -0.00000026      -1.55575267       0.43865437      -0.00000026      -1.55575267
H        6.39516900       5.58637500       6.63395100       0.21939558       0.37980927       1.55569919       0.21939558       0.37980927       1.55569919
H        6.39516900       5.58637500       8.36604900      -0.79619737      -1.37945084       2.63762506      -0.79619737      -1.37945084       2.63762506
H        8.60483100       5.58637500       8.36604900      -0.21939506       0.37981030      -1.55569996      -0.21939506       0.37981030      -1.55569996
H        8.60483100       5.58637500       6.63395100       0.79619866      -1.37945084      -2.63762480       0.79619866      -1.37945084      -2.63762480
18
Lattice="14.99999999685098 0.0 0.0 0.0 14.99999999685098 0.0 0.0 0.0 14.99999999685098" Properties=species:S:1:pos:R:3:forces_eV_per_au:R:3:forces:R:3 energy_eV=-1121.5913094207278 energy=-1121.5913094207278 free_energy=-1121.5913094207278 pbc="T T T"
C        9.04077004       7.50280355       7.60360977      -0.93776154       0.09914431      -6.09090739      -0.93776154       0.09914431      -6.09090739
C        8.26550823       8.83690201       7.39148451      -0.04404840      -0.14574864       6.00468391      -0.04404840      -0.14574864       6.00468391
C        6.73060075       8.83145850       7.59551933      -0.03910494      -0.21042757      -5.83724596      -0.03910494      -0.21042757      -5.83724596
C        5.96108548       7.49512041       7.40476273       0.37868262       0.08702361       6.01038379       0.37868262       0.08702361       6.01038379
C        6.72821563       6.16204504       7.59899785       0.75300464       1.14004051      -6.79937256       0.75300464       1.14004051      -6.79937256
C        8.27886645       6.16933895       7.40417829      -0.44497774      -0.05102277       6.01769883      -0.44497774      -0.05102277       6.01769883
H        9.72905835       7.50340556       8.35250165       1.53182958       0.03748103       2.67834413       1.53182958       0.03748103       2.67834413
H        9.70331060       7.50980686       6.65318693      -0.32290279      -0.03810092       1.22834582      -0.32290279      -0.03810092       1.22834582
H        8.61644057       9.40259377       6.59739195       0.45008189       0.90470127      -1.87664794       0.45008189       0.90470127      -1.87664794
H        8.57809747       9.43801289       8.36989242      -0.11276113      -0.55106223      -1.85593950      -0.11276113      -0.55106223      -1.85593950
H        6.38411835       9.44068249       6.64559918       0.25982257      -0.59310696       1.56570747       0.25982257      -0.59310696       1.56570747
H        6.38552444       9.40511896       8.37984600      -0.49869837       0.97120414       2.13619103      -0.49869837       0.97120414       2.13619103
H        5.27868457       7.50110079       6.63612635      -1.26918368      -0.01937275      -2.19656619      -1.26918368      -0.01937275      -2.19656619
H        5.29228101       7.48748695       8.38380743       0.55372872       0.07635894      -1.72539740       0.55372872       0.07635894      -1.72539740
H        6.39169829       5.59094002       6.63843541       0.26771869       0.33337772       1.36521387       0.26771869       0.33337772       1.36521387
H        6.37244931       5.58359056       8.34117499      -0.89306188      -1.69468120       3.06637322      -0.89306188      -1.69468120       3.06637322
H        8.58157406       5.58225239       8.39758957      -0.10494755       0.53893330      -1.89463718      -0.10494755       0.53893330      -1.89463718
H        8.62662505       5.58279270       6.62169749       0.47257930      -0.88474154      -1.79622769       0.47257930      -0.88474154      -1.79622769
18
Lattice="14.99999999685098 0.0 0.0 0.0 14.99999999685098 0.0 0.0 0.0 14.99999999685098" Properties=species:S:1:pos:R:3:forces_eV_per_au:R:3:forces:R:3 energy_eV=-1122.1793062008162 energy=-1122.1793062008162 free_energy=-1122.1793062008162 pbc="T T T"
C        9.03393871       7.50433381       7.59868981       0.59433338      -0.13027985      -4.66881687       0.59433338      -0.13027985      -4.66881687
C        8.26380852       8.83635344       7.40175293       0.33934628       0.35490685       4.31344233       0.33934628       0.35490685       4.31344233
C        6.72377556       8.83336416       7.58922854      -0.03870102       0.48129843      -4.16607878      -0.03870102       0.48129843      -4.16607878
C        5.96574917       7.49791186       7.40357025       0.26860649       0.01495508       5.51838931       0.26860649       0.01495508       5.51838931
C        6.73065365       6.16388481       7.59236339      -0.30520794      -0.60440747      -3.91577880      -0.30520794      -0.60440747      -3.91577880
C        8.28038138       6.16905347       7.40228606      -0.30993389      -0.56162509       5.36273755      -0.30993389      -0.56162509       5.36273755
H        9.74992882       7.49556246       8.37933649       0.30631763       0.06233280       1.35833951       0.30631763       0.06233280       1.35833951
H        9.72713936       7.50447121       6.65994983      -0.56053906       0.01417758       1.29917946      -0.56053906       0.01417758       1.29917946
H        8.62671850       9.41850029       6.57631213      -0.01795119       0.15289142      -0.72586870      -0.01795119       0.15289142      -0.72586870
H        8.58631511       9.40305538       8.36025097      -0.08624071      -0.16948995      -1.45262546      -0.08624071      -0.16948995      -1.45262546
H        6.39195946       9.43665198       6.66562196       0.08098821      -0.33126787       1.17380938       0.08098821      -0.33126787       1.17380938
H        6.38426368       9.41894014       8.41617440      -0.07029859       0.14895635       0.93620397      -0.07029859       0.14895635       0.93620397
H        5.27624716       7.50641152       6.62865508      -1.06921947      -0.04398360      -1.81935476      -1.06921947      -0.04398360      -1.81935476
H        5.33918959       7.48975571       8.38862456       0.18879122       0.06130153      -1.59884616       0.18879122       0.06130153      -1.59884616
H        6.38887693       5.58077002       6.67194325       0.15538591       0.18156591       0.88056221       0.15538591       0.18156591       0.88056221
H        6.33875908       5.54875949       8.39757810       0.32314910       0.20770040       0.61251031       0.32314910       0.20770040       0.61251031
H        8.56009855       5.56445496       8.38726198       0.04520051       0.65260023      -1.81836772       0.04520051       0.65260023      -1.81836772
H        8.65067874       5.57425745       6.61258916       0.15597315      -0.49163298      -1.28943677       0.15597315      -0.49163298      -1.28943677
18
Lattice="14.99999999685098 0.0 0.0 0.0 14.99999999685098 0.0 0.0 0.0 14.99999999685098" Properties=species:S:1:pos:R:3:forces_eV_per_au:R:3:forces:R:3 energy_eV=-1122.2931571342835 energy=-1122.2931571342835 free_energy=-1122.2931571342835 pbc="T T T"
C        9.03601956       7.50809262       7.59726833      -0.10408854      -0.12921079      -4.42230104      -0.10408854      -0.12921079      -4.42230104
C        8.26006937       8.84080876       7.40781443       0.40797982       0.15737234       4.22214631       0.40797982       0.15737234       4.22214631
C        6.72270226       8.82608107       7.59134392       0.22267605       0.38966920      -4.23831984       0.22267605       0.38966920      -4.23831984
C        5.96215402       7.49366287       7.40310349       0.56422576       0.06138406       5.14612108       0.56422576       0.06138406       5.14612108
C        6.73676540       6.16185231       7.58093334      -0.61345030      -0.79482363      -2.73317908      -0.61345030      -0.79482363      -2.73317908
C        8.27865307       6.16991996       7.40662510      -0.13474560      -0.25594201       5.36854310      -0.13474560      -0.25594201       5.36854310
H        9.75550675       7.50418161       8.36723947       0.47046663       0.02988702       1.49964940       0.47046663       0.02988702       1.49964940
H        9.68282923       7.52287381       6.66560144      -0.04398026      -0.07771314       0.79374274      -0.04398026      -0.07771314       0.79374274
H        8.62247514       9.40552662       6.57559916       0.00132309       0.27678260      -0.84658791       0.00132309       0.27678260      -0.84658791
H        8.61655058       9.39905893       8.35549286      -0.29267741      -0.07373744      -1.38205948      -0.29267741      -0.07373744      -1.38205948
H        6.36357675       9.44736209       6.70409886       0.20266078      -0.33713127       0.76951446       0.20266078      -0.33713127       0.76951446
H        6.39985438       9.42422463       8.39333750      -0.31646680       0.36614334       1.63667274      -0.31646680       0.36614334       1.63667274
H        5.28150535       7.53926372       6.61982154      -1.05445671      -0.17558526      -1.75604700      -1.05445671      -0.17558526      -1.75604700
H        5.35546048       7.48392714       8.37774814      -0.07918869       0.04065840      -1.32379725      -0.07918869       0.04065840      -1.32379725
H        6.41630083       5.57475635       6.68404953      -0.09668736      -0.03174233       0.42723610      -0.09668736      -0.03174233       0.42723610
H        6.33382819       5.53974309       8.41202736       0.59647536       0.62654082      -0.01496845       0.59647536       0.62654082      -0.01496845
H        8.57482915       5.57574174       8.37982441      -0.02895062       0.53766344      -1.65138357      -0.02895062       0.53766344      -1.65138357
H        8.64061563       5.57836402       6.61901911       0.29888483      -0.61021534      -1.49498233       0.29888483      -0.61021534      -1.49498233
18
Lattice="14.99999999685098 0.0 0.0 0.0 14.99999999685098 0.0 0.0 0.0 14.99999999685098" Properties=species:S:1:pos:R:3:forces_eV_per_au:R:3:forces:R:3 energy_eV=-1122.4942699417018 energy=-1122.4942699417018 free_energy=-1122.4942699417018 pbc="T T T"
C        9.03315593       7.50712237       7.58990402       0.57081421      -0.17397961      -4.03991243       0.57081421      -0.17397961      -4.03991243
C        8.25899850       8.84470143       7.41440681       0.19377659      -0.53832010       4.21929033       0.19377659      -0.53832010       4.21929033
C        6.72683029       8.82501449       7.58450281      -0.10160048       0.82768927      -3.73224112      -0.10160048       0.82768927      -3.73224112
C        5.96197706       7.50252813       7.40361375       0.50498137      -0.27783932       4.53287030       0.50498137      -0.27783932       4.53287030
C        6.72841697       6.15775966       7.58110849      -0.13725474      -0.58631771      -2.19405757      -0.13725474      -0.58631771      -2.19405757
C        8.28386876       6.16820546       7.41549372      -0.21800564      -0.53959768       4.18986483      -0.21800564      -0.53959768       4.18986483
H        9.74422500       7.48154279       8.38832722       0.15802771       0.15976141       0.97961293       0.15802771       0.15976141       0.97961293
H        9.70004778       7.49721770       6.64842900      -0.32445445       0.10342468       1.19629034      -0.32445445       0.10342468       1.19629034
H        8.60198470       9.39309198       6.58867915       0.33391611       0.69250170      -1.41451837       0.33391611       0.69250170      -1.41451837
H        8.60605531       9.39077401       8.35139864      -0.14822281       0.09652307      -1.10802282      -0.14822281       0.09652307      -1.10802282
H        6.34290543       9.44142762       6.69895711       0.36868205      -0.30696426       0.86792472       0.36868205      -0.30696426       0.86792472
H        6.42088842       9.42953813       8.40688455      -0.26808816       0.05922665       1.17210397      -0.26808816       0.05922665       1.17210397
H        5.27797731       7.53008195       6.61104950      -0.78117339      -0.13827136      -1.51479474      -0.78117339      -0.13827136      -1.51479474
H        5.35326534       7.50877548       8.35200984      -0.28894443      -0.05874302      -0.86974044      -0.28894443      -0.05874302      -0.86974044
H        6.42061605       5.59082451       6.68786372      -0.25113687      -0.30786775       0.11857774      -0.25113687      -0.30786775       0.11857774
H        6.35901217       5.51614002       8.42451031       0.45901211       0.84413148      -0.24058301       0.45901211       0.84413148      -0.24058301
H        8.57974631       5.57739624       8.36201718       0.03891750       0.38315556      -1.24618902       0.03891750       0.38315556      -1.24618902
H        8.67374269       5.57965619       6.61060306      -0.10924643      -0.23851301      -0.91647538      -0.10924643      -0.23851301      -0.91647538
18
Lattice="14.99999999685098 0.0 0.0 0.0 14.99999999685098 0.0 0.0 0.0 14.99999999685098" Properties=species:S:1:pos:R:3:forces_eV_per_au:R:3:forces:R:3 energy_eV=-1122.7106936424227 energy=-1122.7106936424227 free_energy=-1122.7106936424227 pbc="T T T"
C        9.02629898       7.51034423       7.58709708       1.38792931      -0.40097125      -2.97412615       1.38792931      -0.40097125      -2.97412615
C        8.25924927       8.83394892       7.41834479       0.43394462       0.40464227       3.21969196       0.43394462       0.40464227       3.21969196
C        6.72229141       8.82291442       7.58150870       0.54108480       0.37345171      -3.79832130       0.54108480       0.37345171      -3.79832130
C        5.96993816       7.50209377       7.40366635      -0.42539905      -0.21029850       3.49600276      -0.42539905      -0.21029850       3.49600276
C        6.72467298       6.16505755       7.58098569       0.52776520      -0.29343538      -2.77565550       0.52776520      -0.29343538      -2.77565550
C        8.28234665       6.16761444       7.42577570      -0.14744762      -0.27072148       3.04058660      -0.14744762      -0.27072148       3.04058660
H        9.75467063       7.48255055       8.41522716      -0.50929491       0.19237894       0.12033123      -0.50929491       0.19237894       0.12033123
H        9.68996381       7.50244749       6.65219226      -0.21541371       0.06307199       1.11817508      -0.21541371       0.06307199       1.11817508
H        8.60535968       9.40642057       6.56764380      -0.03308161       0.03619650      -0.45708506      -0.03308161       0.03619650      -0.45708506
H        8.61108292       9.39023774       8.34685077      -0.18644200       0.08075629      -1.07539706      -0.18644200       0.08075629      -1.07539706
H        6.38464003       9.43455989       6.69742985       0.02165563      -0.10630329       0.64966249       0.02165563      -0.10630329       0.64966249
H        6.42926243       9.40548529       8.40524830      -0.46057225       0.42619403       1.54743361      -0.46057225       0.42619403       1.54743361
H        5.27678675       7.52503389       6.58781306      -0.19476878      -0.13137437      -0.86359653      -0.19476878      -0.13137437      -0.86359653
H        5.33486610       7.51149538       8.33149021      -0.23441313      -0.07707010      -0.76100566      -0.23441313      -0.07707010      -0.76100566
H        6.45010876       5.57773259       6.68992511      -0.41553809      -0.22635478       0.14766334      -0.41553809      -0.22635478       0.14766334
H        6.37713597       5.55806110       8.41092949       0.07175100       0.19864060       0.54680114       0.07175100       0.19864060       0.54680114
H        8.59163952       5.58624416       8.33229713       0.13265838      -0.00226231      -0.59442851       0.13265838      -0.00226231      -0.59442851
H        8.67564553       5.59621597       6.59419441      -0.29441754      -0.05654216      -0.58673268      -0.29441754      -0.05654216      -0.58673268
18
Lattice="14.99999999685098 0.0 0.0 0.0 14.99999999685098 0.0 0.0 0.0 14.99999999685098" Properties=species:S:1:pos:R:3:forces_eV_per_au:R:3:forces:R:3 energy_eV=-1122.7210991395561 energy=-1122.7210991395561 free_energy=-1122.7210991395561 pbc="T T T"
C        9.03000214       7.50745568       7.58412925       1.18078453      -0.23404264      -2.73173077       1.18078453      -0.23404264      -2.73173077
C        8.25756843       8.83562740       7.42659304       0.62917748       0.36526686       2.99255145       0.62917748       0.36526686       2.99255145
C        6.72115258       8.82114181       7.57296126       0.79928630       0.20997762      -3.85700955       0.79928630       0.20997762      -3.85700955
C        5.97862677       7.50467829       7.40405028      -0.38270022      -0.36681080       3.18750175      -0.38270022      -0.36681080       3.18750175
C        6.72706088       6.16586440       7.57620066      -0.35577949      -1.28592619      -1.78657731      -0.35577949      -1.28592619      -1.78657731
C        8.27454476       6.17113693       7.43237037       0.05493702      -0.44137408       2.53053475       0.05493702      -0.44137408       2.53053475
H        9.76581456       7.48767828       8.40331754      -0.49648799       0.14140322       0.21533015      -0.49648799       0.14140322       0.21533015
H        9.69298303       7.48959468       6.65556117      -0.23073003       0.12678650       0.97994949      -0.23073003       0.12678650       0.97994949
H        8.59771807       9.39416880       6.55833886      -0.01493040       0.04791328      -0.23243930      -0.01493040       0.04791328      -0.23243930
H        8.60101101       9.39078748       8.36593163      -0.17129975       0.03416045      -1.25772170      -0.17129975       0.03416045      -1.25772170
H        6.38985187       9.43868424       6.70000134      -0.03998657      -0.06477483       0.46666731      -0.03998657      -0.06477483       0.46666731
H        6.43679383       9.39543280       8.39131496      -0.63325320       0.67038892       1.92299722      -0.63325320       0.67038892       1.92299722
H        5.27883342       7.51009571       6.59844137      -0.28189498      -0.05731272      -0.99022670      -0.28189498      -0.05731272      -0.99022670
H        5.35535603       7.50291926       8.32174590      -0.45624637      -0.00757550      -0.42681469      -0.45624637      -0.00757550      -0.42681469
H        6.42136878       5.56920355       6.67617800      -0.15017017       0.01857185       0.66379019      -0.15017017       0.01857185       0.66379019
H        6.34167627       5.55290260       8.46636155       0.70750151       0.96884592      -0.85420506       0.70750151       0.96884592      -0.85420506
H        8.57363256       5.57711152       8.32442441       0.26323314      -0.06085698      -0.44554621       0.26323314      -0.06085698      -0.44554621
H        8.67657234       5.62105965       6.58241661      -0.42144057      -0.06464113      -0.37705125      -0.42144057      -0.06464113      -0.37705125
18
Lattice="14.99999999685098 0.0 0.0 0.0 14.99999999685098 0.0 0.0 0.0 14.99999999685098" Properties=species:S:1:pos:R:3:forces_eV_per_au:R:3:forces:R:3 energy_eV=-1122.7917832942283 energy=-1122.7917832942283 free_energy=-1122.7917832942283 pbc="T T T"
C        9.02823222       7.50106344       7.57868821       1.35647752       0.09367017      -2.44404953       1.35647752       0.09367017      -2.44404953
C        8.25571399       8.83159644       7.42800147       0.49460620       0.12988390       3.40928691       0.49460620       0.12988390       3.40928691
C        6.71742533       8.81857660       7.56495323       0.56620525       1.42446751      -2.42392756       0.56620525       1.42446751      -2.42392756
C        5.98729072       7.50765725       7.41436724      -0.91338697      -0.55011118       2.24114038      -0.91338697      -0.55011118       2.24114038
C        6.72333723       6.16689190       7.57376073       0.12530580      -0.84489664      -0.95906210       0.12530580      -0.84489664      -0.95906210
C        8.27712484       6.17474390       7.43118373      -0.24460421      -0.39692973       2.87433058      -0.24460421      -0.39692973       2.87433058
H        9.77502395       7.49737707       8.39541279      -0.64281770       0.06533250       0.16405849      -0.64281770       0.06533250       0.16405849
H        9.70024372       7.50003891       6.66499858      -0.21696100       0.04242037       0.76148439      -0.21696100       0.04242037       0.76148439
H        8.58945660       9.39027002       6.57964449       0.20446312       0.34811991      -0.73675732       0.20446312       0.34811991      -0.73675732
H        8.61254603       9.37733815       8.37265334      -0.29923373       0.01004119      -1.31908802      -0.29923373       0.01004119      -1.31908802
H        6.36882720       9.43106388       6.68801460       0.10379029      -0.10176066       0.61229048       0.10379029      -0.10176066       0.61229048
H        6.44923169       9.43054215       8.42153801      -0.31087723      -0.29315333       0.49885701      -0.31087723      -0.29315333       0.49885701
H        5.26587677       7.50955060       6.60594804       0.11760149      -0.05243405      -0.65674099       0.11760149      -0.05243405      -0.65674099
H        5.35333546       7.50762252       8.30332266      -0.62823286      -0.01994585       0.09107156      -0.62823286      -0.01994585       0.09107156
H        6.43368094       5.57899779       6.70266088      -0.43767503      -0.40031793      -0.08970322      -0.43767503      -0.40031793      -0.08970322
H        6.34151235       5.55711238       8.46541140       0.70184791       0.94542471      -0.79740451       0.70184791       0.94542471      -0.79740451
H        8.57933774       5.57994787       8.32234855       0.23455994      -0.07345565      -0.47095334       0.23455994      -0.07345565      -0.47095334
H        8.66052815       5.63382852       6.58583656      -0.21106906      -0.32635552      -0.75483346      -0.21106906      -0.32635552      -0.75483346
18
Lattice="14.99999999685098 0.0 0.0 0.0 14.99999999685098 0.0 0.0 0.0 14.99999999685098" Properties=species:S:1:pos:R:3:forces_eV_per_au:R:3:forces:R:3 energy_eV=-1122.7531711568647 energy=-1122.7531711568647 free_energy=-1122.7531711568647 pbc="T T T"
C        9.02592727       7.50295462       7.57621842       1.60355796      -0.09740521      -2.74711446       1.60355796      -0.09740521      -2.74711446
C        8.26106202       8.82953580       7.43246576       0.03137826      -0.30559284       2.14483714       0.03137826      -0.30559284       2.14483714
C        6.72106455       8.81993787       7.57424968       0.59704178       1.24068429      -3.16120476       0.59704178       1.24068429      -3.16120476
C        5.98748693       7.51355428       7.41532745      -0.42017148      -0.72310708       2.30841484      -0.42017148      -0.72310708       2.30841484
C        6.72247091       6.16693446       7.56583992       0.00054199      -0.91463987      -0.69464831       0.00054199      -0.91463987      -0.69464831
C        8.27194665       6.17347023       7.43369513      -0.02259743      -0.47581067       2.41043775      -0.02259743      -0.47581067       2.41043775
H        9.77867765       7.51080452       8.38963210      -0.66950215      -0.03033567       0.14331046      -0.66950215      -0.03033567       0.14331046
H        9.70754496       7.50366113       6.65075994      -0.43833324      -0.00705459       1.03456049      -0.43833324      -0.00705459       1.03456049
H        8.59983788       9.36140099       6.55745564       0.04639196       0.34223414      -0.35389461       0.04639196       0.34223414      -0.35389461
H        8.58408544       9.33622479       8.35097636       0.24061823       0.76943810      -0.38340162       0.24061823       0.76943810      -0.38340162
H        6.38093389       9.43813041       6.68940513       0.12156716      -0.21966683       0.69349903       0.12156716      -0.21966683       0.69349903
H        6.44484244       9.43869175       8.40413085      -0.38907784      -0.04967114       0.97723826      -0.38907784      -0.04967114       0.97723826
H        5.26896468       7.51519526       6.62062577      -0.16924338      -0.02107790      -0.95159948      -0.16924338      -0.02107790      -0.95159948
H        5.37721380       7.48501902       8.30580162      -0.89997044       0.10212242       0.38877085      -0.89997044       0.10212242       0.38877085
H        6.42502972       5.57155853       6.70561441      -0.39806693      -0.34584140      -0.23904883      -0.39806693      -0.34584140      -0.23904883
H        6.32220721       5.54601375       8.45020103       0.81365953       1.04896844      -0.80357207       0.81365953       1.04896844      -0.80357207
H        8.60012235       5.60504948       8.32676322       0.12309054      -0.27034790      -0.39864183       0.12309054      -0.27034790      -0.39864183
H        8.63020201       5.61213619       6.57489372      -0.17088451      -0.04289603      -0.36794235      -0.17088451      -0.04289603      -0.36794235
18
Lattice="14.99999999685098 0.0 0.0 0.0 14.99999999685098 0.0 0.0 0.0 14.99999999685098" Properties=species:S:1:pos:R:3:forces_eV_per_au:R:3:forces:R:3 energy_eV=-1122.8084621037979 energy=-1122.8084621037979 free_energy=-1122.8084621037979 pbc="T T T"
C        9.02801012       7.51168009       7.56676631       0.92851046      -0.64120099      -2.73988014       0.92851046      -0.64120099      -2.73988014
C        8.26746864       8.82683940       7.42773537      -0.32578448      -0.03787492       2.80283309      -0.32578448      -0.03787492       2.80283309
C        6.71666627       8.82375801       7.57499196       0.57271271       1.41058664      -2.93423626       0.57271271       1.41058664      -2.93423626
C        5.98517173       7.51050659       7.42642599      -0.17580946      -0.51500662       2.80538465      -0.17580946      -0.51500662       2.80538465
C        6.72669320       6.16502764       7.56878456      -0.12222664      -0.60752828      -0.54703948      -0.12222664      -0.60752828      -0.54703948
C        8.26779198       6.16676515       7.43076547       0.21623492      -0.20153926       2.79669407       0.21623492      -0.20153926       2.79669407
H        9.76896939       7.52039002       8.36168877      -0.25202545      -0.06111821       0.67136157      -0.25202545      -0.06111821       0.67136157
H        9.69771151       7.48051881       6.65787696      -0.20502876       0.15222242       0.60774065      -0.20502876       0.15222242       0.60774065
H        8.57729775       9.34727806       6.55534339       0.25018171       0.59783008      -0.87665336       0.25018171       0.59783008      -0.87665336
H        8.60734030       9.37267461       8.33594371       0.04701108       0.43299434      -0.67791917       0.04701108       0.43299434      -0.67791917
H        6.38381903       9.44235820       6.67010002       0.15447831      -0.37780741       1.02403696       0.15447831      -0.37780741       1.02403696
H        6.42158324       9.43582658       8.42042143      -0.15505655      -0.19567561       0.53461565      -0.15505655      -0.19567561       0.53461565
H        5.29254755       7.51713582       6.62543029      -0.54943780      -0.05777166      -1.19562468      -0.54943780      -0.05777166      -1.19562468