
     Program PWSCF v.6.7MaX starts on 28Oct2021 at 11:53:36 

     This program is part of the open-source Quantum ESPRESSO suite
     for quantum simulation of materials; please cite
         "P. Giannozzi et al., J. Phys.:Condens. Matter 21 395502 (2009);
         "P. Giannozzi et al., J. Phys.:Condens. Matter 29 465901 (2017);
          URL http://www.quantum-espresso.org", 
     in publications or presentations arising from this work. More details at
     http://www.quantum-espresso.org/quote

     Parallel version (MPI & OpenMP), running on       8 processor cores
     Number of MPI processes:                 1
     Threads/MPI process:                     8

     MPI processes distributed on     1 nodes
     Reading input from md.in
Warning: card &CELL ignored
Warning: card / ignored

     Current dimensions of program PWSCF are:
     Max number of different atomic species (ntypx) = 10
     Max number of k-points (npk) =  40000
     Max angular momentum in pseudopotentials (lmaxx) =  3

     -------------------------------------------------
     Parameters for Dispersion (Grimme-D2) Correction:
     -------------------------------------------------
       atom      VdW radius       C_6     

        H          1.892          4.857
        C          2.744         60.710

     gamma-point specific algorithms are used

     Subspace diagonalization in iterative solution of the eigenvalue problem:
     a serial algorithm will be used


     G-vector sticks info
     --------------------
     sticks:   dense  smooth     PW     G-vecs:    dense   smooth      PW
     Sum       15329   15329   3833              1429635  1429635  178925



     bravais-lattice index     =            0
     lattice parameter (alat)  =      28.3459  a.u.
     unit-cell volume          =   22775.6289 (a.u.)^3
     number of atoms/cell      =           18
     number of atomic types    =            2
     number of electrons       =        36.00
     number of Kohn-Sham states=           21
     kinetic-energy cutoff     =      60.0000  Ry
     charge density cutoff     =     240.0000  Ry
     scf convergence threshold =      1.0E-10
     mixing beta               =       0.5000
     number of iterations used =            8  plain     mixing
     Exchange-correlation=  SLA  PW   PBX  PBC
                           (   1   4   3   4   0   0   0)

     celldm(1)=  28.345892  celldm(2)=   0.000000  celldm(3)=   0.000000
     celldm(4)=   0.000000  celldm(5)=   0.000000  celldm(6)=   0.000000

     crystal axes: (cart. coord. in units of alat)
               a(1) = (   1.000000   0.000000   0.000000 )  
               a(2) = (   0.000000   1.000000   0.000000 )  
               a(3) = (   0.000000   0.000000   1.000000 )  

     reciprocal axes: (cart. coord. in units 2 pi/alat)
               b(1) = (  1.000000  0.000000  0.000000 )  
               b(2) = (  0.000000  1.000000  0.000000 )  
               b(3) = (  0.000000  0.000000  1.000000 )  


     PseudoPot. # 1 for H  read from file:
     /Users/rca/source_installs/espresso/pseudo/H.pbe-tm-new-gipaw-dc.UPF
     MD5 check sum: 0e5abdcbf773fd5bd1c97111569d22ab
     Pseudo is Norm-conserving, Zval =  1.0
     Generated by new atomic code, or converted to UPF format
     Using radial grid of 1261 points,  0 beta functions with: 

     PseudoPot. # 2 for C  read from file:
     /Users/rca/source_installs/espresso/pseudo/C.pbe-tm-new-gipaw-dc.UPF
     MD5 check sum: c9fa938d11269a3b0a4c160d8754c0f1
     Pseudo is Norm-conserving, Zval =  4.0
     Generated by new atomic code, or converted to UPF format
     Using radial grid of 1441 points,  1 beta functions with: 
                l(1) =   0

     atomic species   valence    mass     pseudopotential
        H              1.00     1.00790     H ( 1.00)
        C              4.00    12.01070     C ( 1.00)

     No symmetry found


                                    s                        frac. trans.

      isym =  1     identity                                     

 cryst.   s( 1) = (     1          0          0      )
                  (     0          1          0      )
                  (     0          0          1      )

 cart.    s( 1) = (  1.0000000  0.0000000  0.0000000 )
                  (  0.0000000  1.0000000  0.0000000 )
                  (  0.0000000  0.0000000  1.0000000 )


   Cartesian axes

     site n.     atom                  positions (alat units)
         1           C   tau(   1) = (   0.6012133   0.5000000   0.5000000  )
         2           C   tau(   2) = (   0.5444133   0.5814133   0.5250733  )
         3           C   tau(   3) = (   0.4555867   0.5814133   0.4749267  )
         4           C   tau(   4) = (   0.3987867   0.5000000   0.5000000  )
         5           C   tau(   5) = (   0.4555867   0.4185867   0.5250733  )
         6           C   tau(   6) = (   0.5444133   0.4185867   0.4749267  )
         7           H   tau(   7) = (   0.6444067   0.4831733   0.5574333  )
         8           H   tau(   8) = (   0.6444067   0.5168267   0.4425667  )
         9           H   tau(   9) = (   0.5820333   0.6429200   0.5093800  )
        10           H   tau(  10) = (   0.5308000   0.5801800   0.5976200  )
        11           H   tau(  11) = (   0.4692000   0.5801800   0.4023800  )
        12           H   tau(  12) = (   0.4179667   0.6429200   0.4906200  )
        13           H   tau(  13) = (   0.3555933   0.4831733   0.4425667  )
        14           H   tau(  14) = (   0.3555933   0.5168267   0.5574333  )
        15           H   tau(  15) = (   0.4179667   0.3570800   0.5093800  )
        16           H   tau(  16) = (   0.4692000   0.4198200   0.5976200  )
        17           H   tau(  17) = (   0.5820333   0.3570800   0.4906200  )
        18           H   tau(  18) = (   0.5308000   0.4198200   0.4023800  )

   Crystallographic axes

     site n.     atom                  positions (cryst. coord.)
         1           C   tau(   1) = (  0.6012133  0.5000000  0.5000000  )
         2           C   tau(   2) = (  0.5444133  0.5814133  0.5250733  )
         3           C   tau(   3) = (  0.4555867  0.5814133  0.4749267  )
         4           C   tau(   4) = (  0.3987867  0.5000000  0.5000000  )
         5           C   tau(   5) = (  0.4555867  0.4185867  0.5250733  )
         6           C   tau(   6) = (  0.5444133  0.4185867  0.4749267  )
         7           H   tau(   7) = (  0.6444067  0.4831733  0.5574333  )
         8           H   tau(   8) = (  0.6444067  0.5168267  0.4425667  )
         9           H   tau(   9) = (  0.5820333  0.6429200  0.5093800  )
        10           H   tau(  10) = (  0.5308000  0.5801800  0.5976200  )
        11           H   tau(  11) = (  0.4692000  0.5801800  0.4023800  )
        12           H   tau(  12) = (  0.4179667  0.6429200  0.4906200  )
        13           H   tau(  13) = (  0.3555933  0.4831733  0.4425667  )
        14           H   tau(  14) = (  0.3555933  0.5168267  0.5574333  )
        15           H   tau(  15) = (  0.4179667  0.3570800  0.5093800  )
        16           H   tau(  16) = (  0.4692000  0.4198200  0.5976200  )
        17           H   tau(  17) = (  0.5820333  0.3570800  0.4906200  )
        18           H   tau(  18) = (  0.5308000  0.4198200  0.4023800  )

     number of k points=     1
                       cart. coord. in units 2pi/alat
        k(    1) = (   0.0000000   0.0000000   0.0000000), wk =   2.0000000

                       cryst. coord.
        k(    1) = (   0.0000000   0.0000000   0.0000000), wk =   2.0000000

     Dense  grid:   714818 G-vectors     FFT dimensions: ( 144, 144, 144)

     Dynamical RAM for                 wfc:      28.64 MB

     Dynamical RAM for     wfc (w. buffer):      28.64 MB

     Dynamical RAM for           str. fact:      21.81 MB

     Dynamical RAM for           local pot:       0.00 MB

     Dynamical RAM for          nlocal pot:       8.18 MB

     Dynamical RAM for                qrad:       0.02 MB

     Dynamical RAM for          rho,v,vnew:     101.07 MB

     Dynamical RAM for               rhoin:      33.69 MB

     Dynamical RAM for            rho*nmix:     174.52 MB

     Dynamical RAM for           G-vectors:      46.36 MB

     Dynamical RAM for          h,s,v(r/c):       0.01 MB

     Dynamical RAM for          <psi|beta>:       0.00 MB

     Dynamical RAM for      wfcinit/wfcrot:     196.50 MB

     Estimated static dynamical RAM per process >     560.91 MB

     Estimated max dynamical RAM per process >     757.41 MB

     Initial potential from superposition of free atoms

     starting charge   29.99975, renormalised to   36.00000

     negative rho (up, down):  8.342E-04 0.000E+00
     Starting wfcs are   72 randomized atomic wfcs

     total cpu time spent up to now is        2.9 secs

     Self-consistent Calculation

     iteration #  1     ecut=    60.00 Ry     beta= 0.50
     CG style diagonalization
     ethr =  1.00E-02,  avg # of iterations =  3.0

     negative rho (up, down):  2.979E-04 0.000E+00

     total cpu time spent up to now is        6.4 secs

     total energy              =     -81.32448711 Ry
     estimated scf accuracy    <       4.45832723 Ry

     iteration #  2     ecut=    60.00 Ry     beta= 0.50
     CG style diagonalization
     ethr =  1.00E-02,  avg # of iterations =  4.0

     negative rho (up, down):  1.524E-04 0.000E+00

     total cpu time spent up to now is       10.2 secs

     total energy              =     -82.50721956 Ry
     estimated scf accuracy    <       0.79410012 Ry

     iteration #  3     ecut=    60.00 Ry     beta= 0.50
     CG style diagonalization
     ethr =  2.21E-03,  avg # of iterations =  3.7

     negative rho (up, down):  6.923E-06 0.000E+00

     total cpu time spent up to now is       14.0 secs

     total energy              =     -82.62165676 Ry
     estimated scf accuracy    <       0.05189093 Ry

     iteration #  4     ecut=    60.00 Ry     beta= 0.50
     CG style diagonalization
     ethr =  1.44E-04,  avg # of iterations =  4.3

     negative rho (up, down):  5.992E-06 0.000E+00

     total cpu time spent up to now is       18.2 secs

     total energy              =     -82.63179287 Ry
     estimated scf accuracy    <       0.01058181 Ry

     iteration #  5     ecut=    60.00 Ry     beta= 0.50
     CG style diagonalization
     ethr =  2.94E-05,  avg # of iterations =  3.1

     negative rho (up, down):  2.579E-08 0.000E+00

     total cpu time spent up to now is       21.4 secs

     total energy              =     -82.62970359 Ry
     estimated scf accuracy    <       0.00436704 Ry

     iteration #  6     ecut=    60.00 Ry     beta= 0.50
     CG style diagonalization
     ethr =  1.21E-05,  avg # of iterations =  4.1

     negative rho (up, down):  1.618E-07 0.000E+00

     total cpu time spent up to now is       25.9 secs

     total energy              =     -82.63113857 Ry
     estimated scf accuracy    <       0.00138126 Ry

     iteration #  7     ecut=    60.00 Ry     beta= 0.50
     CG style diagonalization
     ethr =  3.84E-06,  avg # of iterations =  3.6

     total cpu time spent up to now is       29.5 secs

     total energy              =     -82.63130265 Ry
     estimated scf accuracy    <       0.00008378 Ry

     iteration #  8     ecut=    60.00 Ry     beta= 0.50
     CG style diagonalization
     ethr =  2.33E-07,  avg # of iterations =  3.7

     total cpu time spent up to now is       33.4 secs

     total energy              =     -82.63131393 Ry
     estimated scf accuracy    <       0.00000879 Ry

     iteration #  9     ecut=    60.00 Ry     beta= 0.50
     CG style diagonalization
     ethr =  2.44E-08,  avg # of iterations =  4.2

     total cpu time spent up to now is       37.7 secs

     total energy              =     -82.63131792 Ry
     estimated scf accuracy    <       0.00000399 Ry

     iteration # 10     ecut=    60.00 Ry     beta= 0.50
     CG style diagonalization
     ethr =  1.11E-08,  avg # of iterations =  3.2

     total cpu time spent up to now is       41.1 secs

     total energy              =     -82.63131799 Ry
     estimated scf accuracy    <       0.00000067 Ry

     iteration # 11     ecut=    60.00 Ry     beta= 0.50
     CG style diagonalization
     ethr =  1.86E-09,  avg # of iterations =  3.7

     total cpu time spent up to now is       44.9 secs

     total energy              =     -82.63131815 Ry
     estimated scf accuracy    <          5.1E-10 Ry

     iteration # 12     ecut=    60.00 Ry     beta= 0.50
     CG style diagonalization
     ethr =  1.43E-12,  avg # of iterations =  5.4

     total cpu time spent up to now is       50.3 secs

     total energy              =     -82.63131816 Ry
     estimated scf accuracy    <          8.5E-10 Ry

     iteration # 13     ecut=    60.00 Ry     beta= 0.50
     CG style diagonalization
     ethr =  1.43E-12,  avg # of iterations =  3.0

     total cpu time spent up to now is       53.5 secs

     total energy              =     -82.63131815 Ry
     estimated scf accuracy    <          5.1E-10 Ry

     iteration # 14     ecut=    60.00 Ry     beta= 0.50
     CG style diagonalization
     ethr =  1.42E-12,  avg # of iterations =  3.7

     total cpu time spent up to now is       57.0 secs

     End of self-consistent calculation

          k = 0.0000 0.0000 0.0000 ( 89463 PWs)   bands (ev):

   -20.1768 -17.7906 -17.7712 -14.6607 -14.3902 -12.1942 -11.5746 -11.3272
   -10.3119  -9.4087  -8.7401  -8.5215  -8.5017  -8.2746  -8.0346  -6.7171
    -6.7100  -6.6733  -0.4479   0.2256   0.2962

     occupation numbers 
     1.0000   1.0000   1.0000   1.0000   1.0000   1.0000   1.0000   1.0000
     1.0000   1.0000   1.0000   1.0000   1.0000   1.0000   1.0000   1.0000
     1.0000   1.0000   0.0000   0.0000   0.0000

     highest occupied, lowest unoccupied level (ev):    -6.6733   -0.4479

!    total energy              =     -82.63131815 Ry
     estimated scf accuracy    <          2.3E-12 Ry

     The total energy is the sum of the following terms:
     one-electron contribution =    -434.60662292 Ry
     hartree contribution      =     221.73995054 Ry
     xc contribution           =     -29.69644504 Ry
     ewald contribution        =     159.96205104 Ry
     Dispersion Correction     =      -0.03025178 Ry

     convergence has been achieved in  14 iterations

     Forces acting on atoms (cartesian axes, Ry/au):

     atom    1 type  2   force =     0.01650405   -0.00000000   -0.00000000
     atom    2 type  2   force =     0.00182849    0.01335955    0.00325851
     atom    3 type  2   force =    -0.00182849    0.01335955   -0.00325851
     atom    4 type  2   force =    -0.01650405   -0.00000000   -0.00000000
     atom    5 type  2   force =    -0.00182849   -0.01335955    0.00325851
     atom    6 type  2   force =     0.00182848   -0.01335955   -0.00325851
     atom    7 type  1   force =     0.00055689    0.00156834   -0.00963897
     atom    8 type  1   force =     0.00055689   -0.00156834    0.00963897
     atom    9 type  1   force =    -0.00513331   -0.00463631    0.00932808
     atom   10 type  1   force =     0.00147445    0.00489276   -0.00609152
     atom   11 type  1   force =    -0.00147445    0.00489276    0.00609152
     atom   12 type  1   force =     0.00513331   -0.00463631   -0.00932808
     atom   13 type  1   force =    -0.00055688    0.00156834    0.00963897
     atom   14 type  1   force =    -0.00055688   -0.00156834   -0.00963897
     atom   15 type  1   force =     0.00513331    0.00463631    0.00932808
     atom   16 type  1   force =    -0.00147445   -0.00489276   -0.00609152
     atom   17 type  1   force =    -0.00513331    0.00463632   -0.00932808
     atom   18 type  1   force =     0.00147445   -0.00489276    0.00609152
     The non-local contrib.  to forces
     atom    1 type  2   force =    -0.04582878   -0.00000000   -0.00000000
     atom    2 type  2   force =    -0.01332968   -0.03723674   -0.03362522
     atom    3 type  2   force =     0.01332967   -0.03723674    0.03362521
     atom    4 type  2   force =     0.04582878    0.00000000   -0.00000000
     atom    5 type  2   force =     0.01332967    0.03723674   -0.03362522
     atom    6 type  2   force =    -0.01332968    0.03723674    0.03362521
     atom    7 type  1   force =     0.00000000    0.00000000    0.00000000
     atom    8 type  1   force =     0.00000000    0.00000000    0.00000000
     atom    9 type  1   force =     0.00000000    0.00000000    0.00000000
     atom   10 type  1   force =     0.00000000    0.00000000    0.00000000
     atom   11 type  1   force =     0.00000000    0.00000000    0.00000000
     atom   12 type  1   force =     0.00000000    0.00000000    0.00000000
     atom   13 type  1   force =     0.00000000    0.00000000    0.00000000
     atom   14 type  1   force =     0.00000000    0.00000000    0.00000000
     atom   15 type  1   force =     0.00000000    0.00000000    0.00000000
     atom   16 type  1   force =     0.00000000    0.00000000    0.00000000
     atom   17 type  1   force =     0.00000000    0.00000000    0.00000000
     atom   18 type  1   force =     0.00000000    0.00000000    0.00000000
     The ionic contribution  to forces
     atom    1 type  2   force =     6.91701949    0.00000000   -0.00000000
     atom    2 type  2   force =     2.87934372    5.63757154    2.77896402
     atom    3 type  2   force =    -2.87934372    5.63757154   -2.77896402
     atom    4 type  2   force =    -6.91701949   -0.00000000   -0.00000000
     atom    5 type  2   force =    -2.87934372   -5.63757154    2.77896402
     atom    6 type  2   force =     2.87934372   -5.63757154   -2.77896402
     atom    7 type  1   force =     2.58789476   -0.62042737    2.20945553
     atom    8 type  1   force =     2.58789476    0.62042737   -2.20945553
     atom    9 type  1   force =     1.74927909    2.99433216   -0.25210256
     atom   10 type  1   force =    -0.00402835    0.91303866    3.30854465
     atom   11 type  1   force =     0.00402835    0.91303866   -3.30854465
     atom   12 type  1   force =    -1.74927909    2.99433216    0.25210256
     atom   13 type  1   force =    -2.58789476   -0.62042737   -2.20945553
     atom   14 type  1   force =    -2.58789476    0.62042737    2.20945553
     atom   15 type  1   force =    -1.74927909   -2.99433216   -0.25210256
     atom   16 type  1   force =     0.00402835   -0.91303866    3.30854465
     atom   17 type  1   force =     1.74927909   -2.99433216    0.25210256
     atom   18 type  1   force =    -0.00402835   -0.91303866   -3.30854465
     The local contribution  to forces
     atom    1 type  2   force =    -6.85536333   -0.00000001   -0.00000000
     atom    2 type  2   force =    -2.86444463   -5.58800312   -2.74314298
     atom    3 type  2   force =     2.86444462   -5.58800312    2.74314298
     atom    4 type  2   force =     6.85536334   -0.00000000   -0.00000000
     atom    5 type  2   force =     2.86444462    5.58800312   -2.74314298
     atom    6 type  2   force =    -2.86444462    5.58800312    2.74314297
     atom    7 type  1   force =    -2.58661545    0.62232336   -2.21995990
     atom    8 type  1   force =    -2.58661545   -0.62232336    2.21995990
     atom    9 type  1   force =    -1.75462803   -2.99904471    0.26232252
     atom   10 type  1   force =     0.00643083   -0.90651874   -3.31482657
     atom   11 type  1   force =    -0.00643083   -0.90651874    3.31482657
     atom   12 type  1   force =     1.75462803   -2.99904471   -0.26232252
     atom   13 type  1   force =     2.58661546    0.62232336    2.21995990
     atom   14 type  1   force =     2.58661546   -0.62232336   -2.21995990
     atom   15 type  1   force =     1.75462803    2.99904471    0.26232252
     atom   16 type  1   force =    -0.00643083    0.90651874   -3.31482657
     atom   17 type  1   force =    -1.75462804    2.99904471   -0.26232253
     atom   18 type  1   force =     0.00643083    0.90651874    3.31482657
     The core correction contribution to forces
     atom    1 type  2   force =     0.00000000    0.00000000    0.00000000
     atom    2 type  2   force =     0.00000000    0.00000000    0.00000000
     atom    3 type  2   force =     0.00000000    0.00000000    0.00000000
     atom    4 type  2   force =     0.00000000    0.00000000    0.00000000
     atom    5 type  2   force =     0.00000000    0.00000000    0.00000000
     atom    6 type  2   force =     0.00000000    0.00000000    0.00000000
     atom    7 type  1   force =     0.00000000    0.00000000    0.00000000
     atom    8 type  1   force =     0.00000000    0.00000000    0.00000000
     atom    9 type  1   force =     0.00000000    0.00000000    0.00000000
     atom   10 type  1   force =     0.00000000    0.00000000    0.00000000
     atom   11 type  1   force =     0.00000000    0.00000000    0.00000000
     atom   12 type  1   force =     0.00000000    0.00000000    0.00000000
     atom   13 type  1   force =     0.00000000    0.00000000    0.00000000
     atom   14 type  1   force =     0.00000000    0.00000000    0.00000000
     atom   15 type  1   force =     0.00000000    0.00000000    0.00000000
     atom   16 type  1   force =     0.00000000    0.00000000    0.00000000
     atom   17 type  1   force =     0.00000000    0.00000000    0.00000000
     atom   18 type  1   force =     0.00000000    0.00000000    0.00000000
     The Hubbard contrib.    to forces
     atom    1 type  2   force =     0.00000000    0.00000000    0.00000000
     atom    2 type  2   force =     0.00000000    0.00000000    0.00000000
     atom    3 type  2   force =     0.00000000    0.00000000    0.00000000
     atom    4 type  2   force =     0.00000000    0.00000000    0.00000000
     atom    5 type  2   force =     0.00000000    0.00000000    0.00000000
     atom    6 type  2   force =     0.00000000    0.00000000    0.00000000
     atom    7 type  1   force =     0.00000000    0.00000000    0.00000000
     atom    8 type  1   force =     0.00000000    0.00000000    0.00000000
     atom    9 type  1   force =     0.00000000    0.00000000    0.00000000
     atom   10 type  1   force =     0.00000000    0.00000000    0.00000000
     atom   11 type  1   force =     0.00000000    0.00000000    0.00000000
     atom   12 type  1   force =     0.00000000    0.00000000    0.00000000
     atom   13 type  1   force =     0.00000000    0.00000000    0.00000000
     atom   14 type  1   force =     0.00000000    0.00000000    0.00000000
     atom   15 type  1   force =     0.00000000    0.00000000    0.00000000
     atom   16 type  1   force =     0.00000000    0.00000000    0.00000000
     atom   17 type  1   force =     0.00000000    0.00000000    0.00000000
     atom   18 type  1   force =     0.00000000    0.00000000    0.00000000
     The SCF correction term to forces
     atom    1 type  2   force =    -0.00000078    0.00000001    0.00000000
     atom    2 type  2   force =    -0.00000032   -0.00000125    0.00000013
     atom    3 type  2   force =     0.00000033   -0.00000124   -0.00000013
     atom    4 type  2   force =     0.00000078    0.00000000    0.00000000
     atom    5 type  2   force =     0.00000032    0.00000124    0.00000014
     atom    6 type  2   force =    -0.00000032    0.00000125   -0.00000013
     atom    7 type  1   force =    -0.00000006    0.00000002   -0.00000002
     atom    8 type  1   force =    -0.00000006   -0.00000002    0.00000002
     atom    9 type  1   force =     0.00000004    0.00000003   -0.00000001
     atom   10 type  1   force =    -0.00000003   -0.00000008    0.00000003
     atom   11 type  1   force =     0.00000003   -0.00000008   -0.00000003
     atom   12 type  1   force =    -0.00000003    0.00000003    0.00000001
     atom   13 type  1   force =     0.00000006    0.00000002    0.00000002
     atom   14 type  1   force =     0.00000006   -0.00000002   -0.00000002
     atom   15 type  1   force =    -0.00000003   -0.00000003   -0.00000001
     atom   16 type  1   force =     0.00000003    0.00000008    0.00000003
     atom   17 type  1   force =     0.00000004   -0.00000003    0.00000001
     atom   18 type  1   force =    -0.00000003    0.00000008   -0.00000003

     Dispersion contribution to forces:
     atom    1 type  2   force =     0.00067745    0.00000000   -0.00000000
     atom    2 type  2   force =     0.00025939    0.00102911    0.00106256
     atom    3 type  2   force =    -0.00025939    0.00102911   -0.00106256
     atom    4 type  2   force =    -0.00067745   -0.00000000   -0.00000000
     atom    5 type  2   force =    -0.00025939   -0.00102911    0.00106256
     atom    6 type  2   force =     0.00025939   -0.00102911   -0.00106256
     atom    7 type  1   force =    -0.00072236   -0.00032767    0.00086542
     atom    8 type  1   force =    -0.00072236    0.00032767   -0.00086542
     atom    9 type  1   force =     0.00021560    0.00007621   -0.00089188
     atom   10 type  1   force =    -0.00092800   -0.00162708    0.00019038
     atom   11 type  1   force =     0.00092800   -0.00162708   -0.00019038
     atom   12 type  1   force =    -0.00021560    0.00007621    0.00089188
     atom   13 type  1   force =     0.00072236   -0.00032767   -0.00086542
     atom   14 type  1   force =     0.00072236    0.00032767    0.00086542
     atom   15 type  1   force =    -0.00021560   -0.00007621   -0.00089188
     atom   16 type  1   force =     0.00092800    0.00162708    0.00019038
     atom   17 type  1   force =     0.00021560   -0.00007621    0.00089188
     atom   18 type  1   force =    -0.00092800    0.00162708   -0.00019038

     Total force =     0.049895     Total SCF correction =     0.000003

     Total Dispersion Force =     0.005746

     Writing output data file ./temp.save/

     init_run     :     14.30s CPU      2.67s WALL (       1 calls)
     electrons    :    297.47s CPU     54.20s WALL (       1 calls)
     forces       :      3.27s CPU      0.52s WALL (       1 calls)

     Called by init_run:
     wfcinit      :     10.93s CPU      1.89s WALL (       1 calls)
     wfcinit:atom :      0.23s CPU      0.05s WALL (       1 calls)
     wfcinit:wfcr :      9.68s CPU      1.59s WALL (       1 calls)
     potinit      :      2.72s CPU      0.44s WALL (       1 calls)
     hinit0       :      0.48s CPU      0.17s WALL (       1 calls)

     Called by electrons:
     c_bands      :    237.00s CPU     42.47s WALL (      14 calls)
     sum_band     :     21.24s CPU      3.92s WALL (      14 calls)
     v_of_rho     :     30.78s CPU      5.91s WALL (      15 calls)
     v_h          :      1.88s CPU      0.32s WALL (      15 calls)
     v_xc         :     28.90s CPU      5.59s WALL (      15 calls)
     mix_rho      :      9.30s CPU      1.96s WALL (      14 calls)

     Called by c_bands:
     init_us_2    :      0.38s CPU      0.06s WALL (      29 calls)
     rcgdiagg     :    202.60s CPU     36.31s WALL (      14 calls)
     wfcrot       :     43.86s CPU      7.71s WALL (      14 calls)

     Called by sum_band:
     sum_band:wei :      0.00s CPU      0.00s WALL (      14 calls)
     sum_band:loo :     17.86s CPU      3.35s WALL (      14 calls)
     sum_band:buf :      0.00s CPU      0.00s WALL (      14 calls)
     sum_band:ini :      0.18s CPU      0.03s WALL (      14 calls)

     Called by *cgdiagg:
     h_psi        :    230.61s CPU     41.11s WALL (     848 calls)

     Called by h_psi:
     h_psi:calbec :      2.31s CPU      0.42s WALL (     848 calls)
     vloc_psi     :    226.57s CPU     40.37s WALL (     848 calls)
     add_vuspsi   :      1.14s CPU      0.19s WALL (     848 calls)
     hs_1psi      :    189.04s CPU     33.78s WALL (     834 calls)
     s_1psi       :      1.39s CPU      0.28s WALL (     834 calls)

     General routines
     calbec       :      3.48s CPU      0.66s WALL (    1686 calls)
     fft          :      9.64s CPU      1.47s WALL (     121 calls)
     ffts         :      1.21s CPU      0.19s WALL (      14 calls)
     fftw         :    213.72s CPU     37.81s WALL (    2180 calls)

     Parallel routines

     PWSCF        :   5m15.49s CPU     57.67s WALL


   This run was terminated on:  11:54:34  28Oct2021            

=------------------------------------------------------------------------------=
   JOB DONE.
=------------------------------------------------------------------------------=
