18
Lattice="14.99999999685098 0.0 0.0 0.0 14.99999999685098 0.0 0.0 0.0 14.99999999685098" Properties=species:S:1:pos:R:3:forces_eV_per_au:R:3:forces:R:3 energy_eV=-1124.2562587486264 energy=-1124.2562587486264 free_energy=-1124.2562587486264 pbc="T T T"
C        9.01819950       7.50000000       7.50000000       0.42433615      -0.00000000      -0.00000000       0.42433615      -0.00000000      -0.00000000
C        8.16619950       8.72119950       7.87609950       0.04701236       0.34348781       0.08377965       0.04701236       0.34348781       0.08377965
C        6.83380050       8.72119950       7.12390050      -0.04701236       0.34348781      -0.08377965      -0.04701236       0.34348781      -0.08377965
C        5.98180050       7.50000000       7.50000000      -0.42433615      -0.00000000      -0.00000000      -0.42433615      -0.00000000      -0.00000000
C        6.83380050       6.27880050       7.87609950      -0.04701236      -0.34348781       0.08377965      -0.04701236      -0.34348781       0.08377965
C        8.16619950       6.27880050       7.12390050       0.04701211      -0.34348781      -0.08377965       0.04701211      -0.34348781      -0.08377965
H        9.66610050       7.24759950       8.36149950       0.01431822       0.04032364      -0.24782786       0.01431822       0.04032364      -0.24782786
H        9.66610050       7.75240050       6.63850050       0.01431822      -0.04032364       0.24782786       0.01431822      -0.04032364       0.24782786
H        8.73049950       9.64380000       7.64070000      -0.13198270      -0.11920431       0.23983456      -0.13198270      -0.11920431       0.23983456
H        7.96200000       8.70270000       8.96430000       0.03790963       0.12579791      -0.15661926       0.03790963       0.12579791      -0.15661926
H        7.03800000       8.70270000       6.03570000      -0.03790963       0.12579791       0.15661926      -0.03790963       0.12579791       0.15661926
H        6.26950050       9.64380000       7.35930000       0.13198270      -0.11920431      -0.23983456       0.13198270      -0.11920431      -0.23983456
H        5.33389950       7.24759950       6.63850050      -0.01431796       0.04032364       0.24782786      -0.01431796       0.04032364       0.24782786
H        5.33389950       7.75240050       8.36149950      -0.01431796      -0.04032364      -0.24782786      -0.01431796      -0.04032364      -0.24782786
H        6.26950050       5.35620000       7.64070000       0.13198270       0.11920431       0.23983456       0.13198270       0.11920431       0.23983456
H        7.03800000       6.29730000       8.96430000      -0.03790963      -0.12579791      -0.15661926      -0.03790963      -0.12579791      -0.15661926
H        8.73049950       5.35620000       7.35930000      -0.13198270       0.11920457      -0.23983456      -0.13198270       0.11920457      -0.23983456
H        7.96200000       6.29730000       6.03570000       0.03790963      -0.12579791       0.15661926       0.03790963      -0.12579791       0.15661926
18
Lattice="14.99999999685098 0.0 0.0 0.0 14.99999999685098 0.0 0.0 0.0 14.99999999685098" Properties=species:S:1:pos:R:3:forces_eV_per_au:R:3:forces:R:3 energy_eV=-1124.2719352268714 energy=-1124.2719352268714 free_energy=-1124.2719352268714 pbc="T T T"
C        9.02693357       7.50000000       7.50000000      -0.18060457       0.00000000       0.00000000      -0.18060457       0.00000000       0.00000000
C        8.16716759       8.72826957       7.87782433      -0.03507396      -0.11534792      -0.05859107      -0.03507396      -0.11534792      -0.05859107
C        6.83283241       8.72826957       7.12217567       0.03507422      -0.11534792       0.05859107       0.03507422      -0.11534792       0.05859107
C        5.97306643       7.50000000       7.50000000       0.18060457       0.00000000       0.00000000       0.18060457       0.00000000       0.00000000
C        6.83283241       6.27173043       7.87782433       0.03507422       0.11534792      -0.05859107       0.03507422       0.11534792      -0.05859107
C        8.16716759       6.27173043       7.12217567      -0.03507396       0.11534792       0.05859107      -0.03507396       0.11534792       0.05859107
H        9.66639469       7.24842993       8.35639928       0.16746443      -0.01575341      -0.04435590       0.16746443      -0.01575341      -0.04435590
H        9.66639469       7.75157007       6.64360072       0.16746443       0.01575341       0.04435590       0.16746443       0.01575341       0.04435590
H        8.72778357       9.64134657       7.64563621       0.02532434       0.14152843       0.16607398       0.02532434       0.14152843       0.16607398
H        7.96278024       8.70528914       8.96107651       0.01509186       0.12443394      -0.02431827       0.01509186       0.12443394      -0.02431827
H        7.03721976       8.70528914       6.03892349      -0.01509186       0.12443419       0.02431801      -0.01509186       0.12443419       0.02431801
H        6.27221643       9.64134657       7.35436379      -0.02532434       0.14152843      -0.16607398      -0.02532434       0.14152843      -0.16607398
H        5.33360531       7.24842993       6.64360072      -0.16746443      -0.01575341       0.04435616      -0.16746443      -0.01575341       0.04435616
H        5.33360531       7.75157007       8.35639928      -0.16746443       0.01575341      -0.04435616      -0.16746443       0.01575341      -0.04435616
H        6.27221643       5.35865343       7.64563621      -0.02532434      -0.14152843       0.16607398      -0.02532434      -0.14152843       0.16607398
H        7.03721976       6.29471086       8.96107651      -0.01509186      -0.12443394      -0.02431801      -0.01509186      -0.12443394      -0.02431801
H        8.72778357       5.35865343       7.35436379       0.02532434      -0.14152869      -0.16607398       0.02532434      -0.14152869      -0.16607398
H        7.96278024       6.29471086       6.03892349       0.01509186      -0.12443394       0.02431801       0.01509186      -0.12443394       0.02431801
18
Lattice="14.99999999685098 0.0 0.0 0.0 14.99999999685098 0.0 0.0 0.0 14.99999999685098" Properties=species:S:1:pos:R:3:forces_eV_per_au:R:3:forces:R:3 energy_eV=-1124.2800036743015 energy=-1124.2800036743015 free_energy=-1124.2800036743015 pbc="T T T"
C        9.02579772       7.50000000       7.50000000      -0.09108956       0.00000000      -0.00000000      -0.09108956       0.00000000      -0.00000000
C        8.16675412       8.72793906       7.87716222       0.00147401      -0.05683346      -0.03520277       0.00147401      -0.05683346      -0.03520277
C        6.83324588       8.72793906       7.12283778      -0.00147401      -0.05683346       0.03520277      -0.00147401      -0.05683346       0.03520277
C        5.97420228       7.50000000       7.50000000       0.09108981       0.00000000       0.00000000       0.09108981       0.00000000       0.00000000
C        6.83324588       6.27206094       7.87716222      -0.00147401       0.05683346      -0.03520277      -0.00147401       0.05683346      -0.03520277
C        8.16675412       6.27206094       7.12283778       0.00147401       0.05683346       0.03520277       0.00147401       0.05683346       0.03520277
H        9.66967005       7.24834890       8.35420191       0.12838392      -0.01052970      -0.04208896       0.12838392      -0.01052970      -0.04208896
H        9.66967005       7.75165110       6.64579809       0.12838392       0.01052970       0.04208896       0.12838392       0.01052970       0.04208896
H        8.72754786       9.64339913       7.65011393       0.01403360       0.10805292       0.13952220       0.01403360       0.10805292       0.13952220
H        7.96327497       8.70835042       8.95975874       0.00225152       0.09800531       0.00579681       0.00225152       0.09800531       0.00579681
H        7.03672503       8.70835042       6.04024126      -0.00225152       0.09800531      -0.00579681      -0.00225152       0.09800531      -0.00579681
H        6.27245214       9.64339913       7.34988607      -0.01403360       0.10805292      -0.13952220      -0.01403360       0.10805292      -0.13952220
H        5.33032996       7.24834890       6.64579809      -0.12838392      -0.01052970       0.04208896      -0.12838392      -0.01052970       0.04208896
H        5.33032996       7.75165110       8.35420191      -0.12838392       0.01052970      -0.04208896      -0.12838392       0.01052970      -0.04208896
H        6.27245214       5.35660087       7.65011393      -0.01403360      -0.10805292       0.13952220      -0.01403360      -0.10805292       0.13952220
H        7.03672503       6.29164958       8.95975874      -0.00225152      -0.09800531       0.00579681      -0.00225152      -0.09800531       0.00579681
H        8.72754786       5.35660087       7.34988607       0.01403360      -0.10805292      -0.13952220       0.01403360      -0.10805292      -0.13952220
H        7.96327497       6.29164958       6.04024126       0.00225152      -0.09800531      -0.00579681       0.00225152      -0.09800531      -0.00579681
18
Lattice="14.99999999685098 0.0 0.0 0.0 14.99999999685098 0.0 0.0 0.0 14.99999999685098" Properties=species:S:1:pos:R:3:forces_eV_per_au:R:3:forces:R:3 energy_eV=-1124.2863295047086 energy=-1124.2863295047086 free_energy=-1124.2863295047086 pbc="T T T"
C        9.02554188       7.50000000       7.50000000      -0.04234144       0.00000000       0.00000000      -0.04234144       0.00000000       0.00000000
C        8.16694454       8.72820293       7.87665621       0.00144727      -0.03307750      -0.00514401       0.00144727      -0.03307750      -0.00514401
C        6.83305546       8.72820293       7.12334379      -0.00144727      -0.03307750       0.00514401      -0.00144727      -0.03307750       0.00514401
C        5.97445812       7.50000000       7.50000000       0.04234144      -0.00000000      -0.00000000       0.04234144      -0.00000000      -0.00000000
C        6.83305546       6.27179707       7.87665621      -0.00144727       0.03307750      -0.00514401      -0.00144727       0.03307750      -0.00514401
C        8.16694454       6.27179707       7.12334379       0.00144727       0.03307750       0.00514401       0.00144727       0.03307750       0.00514401
H        9.67313466       7.24828619       8.35176492       0.10051085      -0.00889447      -0.02713825       0.10051085      -0.00889447      -0.02713825
H        9.67313466       7.75171381       6.64823508       0.10051111       0.00889447       0.02713825       0.10051111       0.00889447       0.02713825
H        8.72721538       9.64559803       7.65506164       0.01521013       0.09292301       0.10726180       0.01521013       0.09292301       0.10726180
H        7.96357673       8.71161448       8.95896278      -0.00497071       0.07183559       0.02107096      -0.00497071       0.07183559       0.02107096
H        7.03642327       8.71161448       6.04103722       0.00497071       0.07183559      -0.02107096       0.00497071       0.07183559      -0.02107096
H        6.27278461       9.64559803       7.34493837      -0.01521013       0.09292301      -0.10726180      -0.01521013       0.09292301      -0.10726180
H        5.32686534       7.24828619       6.64823508      -0.10051085      -0.00889447       0.02713825      -0.10051085      -0.00889447       0.02713825
H        5.32686534       7.75171381       8.35176492      -0.10051111       0.00889447      -0.02713825      -0.10051111       0.00889447      -0.02713825
H        6.27278461       5.35440197       7.65506163      -0.01521013      -0.09292301       0.10726180      -0.01521013      -0.09292301       0.10726180
H        7.03642327       6.28838552       8.95896278       0.00497071      -0.07183559       0.02107096       0.00497071      -0.07183559       0.02107096
H        8.72721538       5.35440197       7.34493836       0.01521013      -0.09292301      -0.10726180       0.01521013      -0.09292301      -0.10726180
H        7.96357673       6.28838552       6.04103722      -0.00497071      -0.07183559      -0.02107096      -0.00497071      -0.07183559      -0.02107096
18
Lattice="14.99999999685098 0.0 0.0 0.0 14.99999999685098 0.0 0.0 0.0 14.99999999685098" Properties=species:S:1:pos:R:3:forces_eV_per_au:R:3:forces:R:3 energy_eV=-1124.29275628935 energy=-1124.29275628935 free_energy=-1124.29275628935 pbc="T T T"
C        9.02593709       7.50000000       7.50000000      -0.00392942       0.00000000      -0.00000000      -0.00392942       0.00000000      -0.00000000
C        8.16715678       8.72880648       7.87665996       0.01209807       0.00117397       0.00682062       0.01209807       0.00117397       0.00682062
C        6.83284322       8.72880648       7.12334004      -0.01209807       0.00117397      -0.00682062      -0.01209807       0.00117397      -0.00682062
C        5.97406291       7.50000000       7.50000000       0.00392942       0.00000000       0.00000000       0.00392942       0.00000000       0.00000000
C        6.83284322       6.27119352       7.87665996      -0.01209807      -0.00117397       0.00682062      -0.01209807      -0.00117397       0.00682062
C        8.16715678       6.27119352       7.12334004       0.01209807      -0.00117397      -0.00682062       0.01209807      -0.00117397      -0.00682062
H        9.67834957       7.24814785       8.34842552       0.06407266      -0.00971466      -0.00460382       0.06407266      -0.00971466      -0.00460382
H        9.67834957       7.75185215       6.65157448       0.06407266       0.00971466       0.00460382       0.06407266       0.00971466       0.00460382
H        8.72693555       9.64926665       7.66231906       0.00900735       0.05901273       0.06737036       0.00900735       0.05901273       0.06737036
H        7.96379067       8.71629625       8.95837662      -0.01682710       0.03415942       0.04422169      -0.01682710       0.03415942       0.04422169
H        7.03620933       8.71629625       6.04162338       0.01682710       0.03415942      -0.04422169       0.01682710       0.03415942      -0.04422169
H        6.27306445       9.64926665       7.33768094      -0.00900735       0.05901273      -0.06737036      -0.00900735       0.05901273      -0.06737036
H        5.32165044       7.24814785       6.65157448      -0.06407292      -0.00971466       0.00460382      -0.06407292      -0.00971466       0.00460382
H        5.32165044       7.75185215       8.34842552      -0.06407292       0.00971466      -0.00460382      -0.06407292       0.00971466      -0.00460382
H        6.27306445       5.35073335       7.66231906      -0.00900735      -0.05901273       0.06737036      -0.00900735      -0.05901273       0.06737036
H        7.03620933       6.28370375       8.95837662       0.01682710      -0.03415942       0.04422169       0.01682710      -0.03415942       0.04422169
H        8.72693555       5.35073335       7.33768094       0.00900735      -0.05901273      -0.06737036       0.00900735      -0.05901273      -0.06737036
H        7.96379067       6.28370375       6.04162338      -0.01682710      -0.03415942      -0.04422169      -0.01682710      -0.03415942      -0.04422169
18
Lattice="14.99999999685098 0.0 0.0 0.0 14.99999999685098 0.0 0.0 0.0 14.99999999685098" Properties=species:S:1:pos:R:3:forces_eV_per_au:R:3:forces:R:3 energy_eV=-1124.2968518747355 energy=-1124.2968518747355 free_energy=-1124.2968518747355 pbc="T T T"
C        9.02703722       7.50000000       7.50000000       0.04850695      -0.00000000       0.00000000       0.04850695      -0.00000000       0.00000000
C        8.16787031       8.73036106       7.87698443      -0.00221912       0.02230612       0.04559337      -0.00221912       0.02230612       0.04559337
C        6.83212969       8.73036106       7.12301557       0.00221912       0.02230612      -0.04559337       0.00221912       0.02230612      -0.04559337
C        5.97296278       7.50000000       7.50000000      -0.04850720      -0.00000000      -0.00000000      -0.04850720      -0.00000000      -0.00000000
C        6.83212969       6.26963894       7.87698443       0.00221912      -0.02230612       0.04559337       0.00221912      -0.02230612       0.04559337
C        8.16787031       6.26963894       7.12301557      -0.00221912      -0.02230612      -0.04559337      -0.00221912      -0.02230612      -0.04559337
H        9.68630687       7.24770401       8.34415551       0.00527642      -0.00749297       0.01543690       0.00527642      -0.00749297       0.01543690
H        9.68630687       7.75229598       6.65584449       0.00527642       0.00749297      -0.01543690       0.00527642       0.00749297      -0.01543690
H        8.72659443       9.65494137       7.67311942       0.00610457       0.01827437       0.01040988       0.00610457       0.01827437       0.01040988
H        7.96348256       8.72278921       8.95895527      -0.02433909      -0.01663581       0.03913116      -0.02433909      -0.01663581       0.03913116
H        7.03651744       8.72278921       6.04104473       0.02433909      -0.01663581      -0.03913116       0.02433909      -0.01663581      -0.03913116
H        6.27340557       9.65494137       7.32688059      -0.00610457       0.01827437      -0.01040988      -0.00610457       0.01827437      -0.01040988
H        5.31369313       7.24770401       6.65584449      -0.00527616      -0.00749297      -0.01543665      -0.00527616      -0.00749297      -0.01543665
H        5.31369313       7.75229599       8.34415551      -0.00527616       0.00749297       0.01543665      -0.00527616       0.00749297       0.01543665
H        6.27340557       5.34505863       7.67311941      -0.00610457      -0.01827437       0.01040988      -0.00610457      -0.01827437       0.01040988
H        7.03651744       6.27721079       8.95895527       0.02433909       0.01663581       0.03913116       0.02433909       0.01663581       0.03913116
H        8.72659443       5.34505863       7.32688058       0.00610457      -0.01827437      -0.01040988       0.00610457      -0.01827437      -0.01040988
H        7.96348256       6.27721079       6.04104473      -0.02433909       0.01663581      -0.03913116      -0.02433909       0.01663581      -0.03913116
18
Lattice="14.99999999685098 0.0 0.0 0.0 14.99999999685098 0.0 0.0 0.0 14.99999999685098" Properties=species:S:1:pos:R:3:forces_eV_per_au:R:3:forces:R:3 energy_eV=-1124.2973393666775 energy=-1124.2973393666775 free_energy=-1124.2973393666775 pbc="T T T"
C        9.02791267       7.50000000       7.50000000       0.02659318       0.00000000      -0.00000000       0.02659318       0.00000000      -0.00000000
C        8.16780626       8.73082714       7.87792448       0.00769634       0.02159572       0.01796867       0.00769634       0.02159572       0.01796867
C        6.83219374       8.73082714       7.12207552      -0.00769634       0.02159572      -0.01796867      -0.00769634       0.02159572      -0.01796867
C        5.97208733       7.50000000       7.50000000      -0.02659318       0.00000000      -0.00000000      -0.02659318       0.00000000      -0.00000000
C        6.83219374       6.26917286       7.87792448      -0.00769634      -0.02159598       0.01796867      -0.00769634      -0.02159598       0.01796867
C        8.16780626       6.26917286       7.12207552       0.00769634      -0.02159598      -0.01796867       0.00769634      -0.02159598      -0.01796867
H        9.68758756       7.24746629       8.34391526      -0.00111817      -0.00931845       0.01478564      -0.00111817      -0.00931845       0.01478564
H        9.68758756       7.75253371       6.65608474      -0.00111817       0.00931845      -0.01478564      -0.00111817       0.00931845      -0.01478564
H        8.72672013       9.65619410       7.67485277      -0.00178332       0.00158920       0.01050887      -0.00178332       0.00158920       0.01050887
H        7.96295488       8.72336682       8.95977206      -0.02635509      -0.02228786       0.03779959      -0.02635509      -0.02228786       0.03779959
H        7.03704512       8.72336682       6.04022794       0.02635509      -0.02228786      -0.03779959       0.02635509      -0.02228786      -0.03779959
H        6.27327987       9.65619410       7.32514723       0.00178332       0.00158920      -0.01050887       0.00178332       0.00158920      -0.01050887
H        5.31241244       7.24746629       6.65608474       0.00111817      -0.00931845      -0.01478564       0.00111817      -0.00931845      -0.01478564
H        5.31241244       7.75253371       8.34391526       0.00111817       0.00931845       0.01478564       0.00111817       0.00931845       0.01478564
H        6.27327987       5.34380590       7.67485277       0.00178332      -0.00158920       0.01050887       0.00178332      -0.00158920       0.01050887
H        7.03704512       6.27663318       8.95977206       0.02635509       0.02228786       0.03779959       0.02635509       0.02228786       0.03779959
H        8.72672013       5.34380590       7.32514723      -0.00178332      -0.00158920      -0.01050887      -0.00178332      -0.00158920      -0.01050887
H        7.96295488       6.27663318       6.04022794      -0.02635509       0.02228786      -0.03779959      -0.02635509       0.02228786      -0.03779959
18
Lattice="14.99999999685098 0.0 0.0 0.0 14.99999999685098 0.0 0.0 0.0 14.99999999685098" Properties=species:S:1:pos:R:3:forces_eV_per_au:R:3:forces:R:3 energy_eV=-1124.2978642742723 energy=-1124.2978642742723 free_energy=-1124.2978642742723 pbc="T T T"
C        9.02902117       7.50000000       7.50000000       0.00455317      -0.00000000      -0.00000000       0.00455317      -0.00000000      -0.00000000
C        8.16794137       8.73164455       7.87910048      -0.00542657      -0.00168047       0.01225285      -0.00542657      -0.00168047       0.01225285
C        6.83205863       8.73164455       7.12089952       0.00542657      -0.00168047      -0.01225285       0.00542657      -0.00168047      -0.01225285
C        5.97097883       7.50000000       7.50000000      -0.00455317      -0.00000000       0.00000000      -0.00455317      -0.00000000       0.00000000
C        6.83205863       6.26835545       7.87910048       0.00542657       0.00168073       0.01225285       0.00542657       0.00168073       0.01225285
C        8.16794137       6.26835545       7.12089952      -0.00542657       0.00168047      -0.01225285      -0.00542657       0.00168047      -0.01225285
H        9.68881880       7.24690406       8.34424099      -0.01055026      -0.00775008       0.00316837      -0.01055026      -0.00775008       0.00316837
H        9.68881880       7.75309594       6.65575901      -0.01055026       0.00775008      -0.00316837      -0.01055026       0.00775008      -0.00316837
H        8.72681296       9.65745687       7.67680484      -0.00395950      -0.00565591       0.01266088      -0.00395950      -0.00565591       0.01266088
H        7.96162620       8.72319096       8.96171039      -0.01952007      -0.02315870       0.00506713      -0.01952007      -0.02315870       0.00506713
H        7.03837380       8.72319096       6.03828961       0.01952007      -0.02315870      -0.00506713       0.01952007      -0.02315870      -0.00506713
H        6.27318704       9.65745687       7.32319516       0.00395950      -0.00565591      -0.01266088       0.00395950      -0.00565591      -0.01266088
H        5.31118120       7.24690406       6.65575901       0.01055026      -0.00775008      -0.00316837       0.01055026      -0.00775008      -0.00316837
H        5.31118120       7.75309594       8.34424099       0.01055026       0.00775008       0.00316837       0.01055026       0.00775008       0.00316837
H        6.27318704       5.34254313       7.67680484       0.00395950       0.00565591       0.01266088       0.00395950       0.00565591       0.01266088
H        7.03837380       6.27680904       8.96171039       0.01952007       0.02315870       0.00506713       0.01952007       0.02315870       0.00506713
H        8.72681296       5.34254313       7.32319516      -0.00395950       0.00565591      -0.01266088      -0.00395950       0.00565591      -0.01266088
H        7.96162620       6.27680904       6.03828961      -0.01952007       0.02315870      -0.00506713      -0.01952007       0.02315870      -0.00506713
18
Lattice="14.99999999685098 0.0 0.0 0.0 14.99999999685098 0.0 0.0 0.0 14.99999999685098" Properties=species:S:1:pos:R:3:forces_eV_per_au:R:3:forces:R:3 energy_eV=-1124.2980982921736 energy=-1124.2980982921736 free_energy=-1124.2980982921736 pbc="T T T"
C        9.02960651       7.50000000       7.50000000      -0.01744622      -0.00000000       0.00000000      -0.01744622      -0.00000000       0.00000000
C        8.16774441       8.73181590       7.88012385      -0.00327559      -0.01099661      -0.00823087      -0.00327559      -0.01099661      -0.00823087
C        6.83225559       8.73181590       7.11987615       0.00327559      -0.01099635       0.00823087       0.00327559      -0.01099635       0.00823087
C        5.97039349       7.50000000       7.50000000       0.01744622      -0.00000000      -0.00000000       0.01744622      -0.00000000      -0.00000000
C        6.83225559       6.26818411       7.88012385       0.00327533       0.01099635      -0.00823087       0.00327533       0.01099635      -0.00823087
C        8.16774441       6.26818410       7.11987615      -0.00327533       0.01099635       0.00823087      -0.00327533       0.01099635       0.00823087
H        9.68880933       7.24641294       8.34473637      -0.01022065      -0.00789457      -0.00452026      -0.01022065      -0.00789457      -0.00452026
H        9.68880933       7.75358706       6.65526363      -0.01022065       0.00789457       0.00452026      -0.01022065       0.00789457       0.00452026
H        8.72682808       9.65778561       7.67763344      -0.00843656      -0.01202222       0.02051406      -0.00843656      -0.01202222       0.02051406
H        7.96041177       8.72214401       8.96281331      -0.01669726      -0.01994919      -0.00583975      -0.01669726      -0.01994919      -0.00583975
H        7.03958823       8.72214402       6.03718669       0.01669726      -0.01994919       0.00583975       0.01669726      -0.01994919       0.00583975
H        6.27317192       9.65778561       7.32236656       0.00843656      -0.01202222      -0.02051406       0.00843656      -0.01202222      -0.02051406
H        5.31119067       7.24641294       6.65526363       0.01022065      -0.00789457       0.00452026       0.01022065      -0.00789457       0.00452026
H        5.31119067       7.75358706       8.34473637       0.01022065       0.00789457      -0.00452026       0.01022065       0.00789457      -0.00452026
H        6.27317192       5.34221439       7.67763344       0.00843656       0.01202222       0.02051406       0.00843656       0.01202222       0.02051406
H        7.03958823       6.27785599       8.96281331       0.01669726       0.01994919      -0.00583975       0.01669726       0.01994919      -0.00583975
H        8.72682808       5.34221439       7.32236656      -0.00843656       0.01202222      -0.02051406      -0.00843656       0.01202222      -0.02051406
H        7.96041177       6.27785599       6.03718669      -0.01669726       0.01994919       0.00583975      -0.01669726       0.01994919       0.00583975
18
Lattice="14.99999999685098 0.0 0.0 0.0 14.99999999685098 0.0 0.0 0.0 14.99999999685098" Properties=species:S:1:pos:R:3:forces_eV_per_au:R:3:forces:R:3 energy_eV=-1124.2983912227207 energy=-1124.2983912227207 free_energy=-1124.2983912227207 pbc="T T T"
C        9.02986998       7.50000000       7.50000000      -0.02923910       0.00000000      -0.00000000      -0.02923910       0.00000000      -0.00000000
C        8.16745849       8.73175930       7.88106056      -0.00770560      -0.02163172      -0.01245879      -0.00770560      -0.02163172      -0.01245879
C        6.83254151       8.73175930       7.11893944       0.00770560      -0.02163172       0.01245879       0.00770560      -0.02163172       0.01245879
C        5.97013002       7.50000000       7.50000000       0.02923910       0.00000000       0.00000000       0.02923910       0.00000000       0.00000000
C        6.83254151       6.26824070       7.88106056       0.00770560       0.02163172      -0.01245879       0.00770560       0.02163172      -0.01245879
C        8.16745849       6.26824070       7.11893944      -0.00770560       0.02163172       0.01245879      -0.00770560       0.02163172       0.01245879
H        9.68855610       7.24565836       8.34511934      -0.01005404      -0.00655786      -0.01188415      -0.01005404      -0.00655786      -0.01188415
H        9.68855610       7.75434164       6.65488066      -0.01005404       0.00655786       0.01188415      -0.01005404       0.00655786       0.01188415
H        8.72660768       9.65784929       7.67918211      -0.00905105      -0.01252770       0.02552668      -0.00905105      -0.01252770       0.02552668
H        7.95860690       8.72047790       8.96389669      -0.01168232      -0.01632008      -0.02014202      -0.01168232      -0.01632008      -0.02014202
H        7.04139310       8.72047790       6.03610332       0.01168232      -0.01632008       0.02014202       0.01168232      -0.01632008       0.02014202
H        6.27339232       9.65784929       7.32081789       0.00905105      -0.01252770      -0.02552668       0.00905105      -0.01252770      -0.02552668
H        5.31144390       7.24565836       6.65488066       0.01005404      -0.00655786       0.01188415       0.01005404      -0.00655786       0.01188415
H        5.31144390       7.75434164       8.34511934       0.01005404       0.00655786      -0.01188415       0.01005404       0.00655786      -0.01188415