18
Lattice="80.0 0.0 0.0 0.0 80.0 0.0 0.0 0.0 80.0" Properties=species:S:1:pos:R:3:charge:R:1 BendBendEnergy=0.26817870451279296 BendBendTorsionEnergy=-0.22409367531940366 BendEnergy=3.2415797899737155 ConstraintEnergy=1.7191153283324852e-09 Name=Cyclohexane:half-boat NonbondEnergy=5.231786109558277 OopOopEnergy=0 OutOfPlaneEnergy=0 RootMeanSquaredGradient=2.561166495100287e-07 StretchBendEnergy=0.037455526976480163 StretchEnergy=0.02743398644590106 StretchStretchEnergy=-1.5534758396735878e-05 TorsionEnergy=8.387146766246861 TotalEnergy=16.969471675355344 TwistEnergy=0 energy_eV=-403.21689828425843 energy=-403.21689828425843 dipole="-0.0002300280416599961 1.5875316316915233e-08 0.0019032757979186507" pbc="F F F"
C        1.39370000      -0.00000000       0.39240000      -0.14866773
C        0.77730000       1.23460000      -0.26390000      -0.15668028
C       -0.72770000       1.31900000      -0.03340000      -0.15674642
C       -1.47230000      -0.00000000       0.16920000      -0.14875455
C       -0.72770000      -1.31900000      -0.03340000      -0.15674646
C        0.77730000      -1.23460000      -0.26390000      -0.15668025
H        1.19570000      -0.00000000       1.48170000       0.07585673
H        2.48650000      -0.00000000       0.21660000       0.07730345
H        0.97510000       1.19080000      -1.35260000       0.07654083
H        1.25120000       2.15230000       0.13450000       0.07791665
H       -1.18040000       1.85990000      -0.88700000       0.07666275
H       -0.90420000       1.93510000       0.86990000       0.07787829
H       -2.36490000      -0.00000000      -0.48620000       0.07735853
H       -1.85300000      -0.00000000       1.20950000       0.07575996
H       -1.18040000      -1.85990000      -0.88700000       0.07666272
H       -0.90420000      -1.93510000       0.86990000       0.07787826
H        1.25120000      -2.15230000       0.13450000       0.07791668
H        0.97510000      -1.19080000      -1.35260000       0.07654085
