
     Program PWSCF v.6.7MaX starts on 28Oct2021 at 11:50:59 

     This program is part of the open-source Quantum ESPRESSO suite
     for quantum simulation of materials; please cite
         "P. Giannozzi et al., J. Phys.:Condens. Matter 21 395502 (2009);
         "P. Giannozzi et al., J. Phys.:Condens. Matter 29 465901 (2017);
          URL http://www.quantum-espresso.org", 
     in publications or presentations arising from this work. More details at
     http://www.quantum-espresso.org/quote

     Parallel version (MPI & OpenMP), running on       8 processor cores
     Number of MPI processes:                 1
     Threads/MPI process:                     8

     MPI processes distributed on     1 nodes
     Reading input from md.in
Warning: card &CELL ignored
Warning: card / ignored

     Current dimensions of program PWSCF are:
     Max number of different atomic species (ntypx) = 10
     Max number of k-points (npk) =  40000
     Max angular momentum in pseudopotentials (lmaxx) =  3

     -------------------------------------------------
     Parameters for Dispersion (Grimme-D2) Correction:
     -------------------------------------------------
       atom      VdW radius       C_6     

        H          1.892          4.857
        C          2.744         60.710

     gamma-point specific algorithms are used

     Subspace diagonalization in iterative solution of the eigenvalue problem:
     a serial algorithm will be used


     G-vector sticks info
     --------------------
     sticks:   dense  smooth     PW     G-vecs:    dense   smooth      PW
     Sum       15329   15329   3833              1429635  1429635  178925



     bravais-lattice index     =            0
     lattice parameter (alat)  =      28.3459  a.u.
     unit-cell volume          =   22775.6289 (a.u.)^3
     number of atoms/cell      =           18
     number of atomic types    =            2
     number of electrons       =        36.00
     number of Kohn-Sham states=           21
     kinetic-energy cutoff     =      60.0000  Ry
     charge density cutoff     =     240.0000  Ry
     scf convergence threshold =      1.0E-10
     mixing beta               =       0.5000
     number of iterations used =            8  plain     mixing
     Exchange-correlation=  SLA  PW   PBX  PBC
                           (   1   4   3   4   0   0   0)

     celldm(1)=  28.345892  celldm(2)=   0.000000  celldm(3)=   0.000000
     celldm(4)=   0.000000  celldm(5)=   0.000000  celldm(6)=   0.000000

     crystal axes: (cart. coord. in units of alat)
               a(1) = (   1.000000   0.000000   0.000000 )  
               a(2) = (   0.000000   1.000000   0.000000 )  
               a(3) = (   0.000000   0.000000   1.000000 )  

     reciprocal axes: (cart. coord. in units 2 pi/alat)
               b(1) = (  1.000000  0.000000  0.000000 )  
               b(2) = (  0.000000  1.000000  0.000000 )  
               b(3) = (  0.000000  0.000000  1.000000 )  


     PseudoPot. # 1 for H  read from file:
     /Users/rca/source_installs/espresso/pseudo/H.pbe-tm-new-gipaw-dc.UPF
     MD5 check sum: 0e5abdcbf773fd5bd1c97111569d22ab
     Pseudo is Norm-conserving, Zval =  1.0
     Generated by new atomic code, or converted to UPF format
     Using radial grid of 1261 points,  0 beta functions with: 

     PseudoPot. # 2 for C  read from file:
     /Users/rca/source_installs/espresso/pseudo/C.pbe-tm-new-gipaw-dc.UPF
     MD5 check sum: c9fa938d11269a3b0a4c160d8754c0f1
     Pseudo is Norm-conserving, Zval =  4.0
     Generated by new atomic code, or converted to UPF format
     Using radial grid of 1441 points,  1 beta functions with: 
                l(1) =   0

     atomic species   valence    mass     pseudopotential
        H              1.00     1.00790     H ( 1.00)
        C              4.00    12.01070     C ( 1.00)

     No symmetry found


                                    s                        frac. trans.

      isym =  1     identity                                     

 cryst.   s( 1) = (     1          0          0      )
                  (     0          1          0      )
                  (     0          0          1      )

 cart.    s( 1) = (  1.0000000  0.0000000  0.0000000 )
                  (  0.0000000  1.0000000  0.0000000 )
                  (  0.0000000  0.0000000  1.0000000 )


   Cartesian axes

     site n.     atom                  positions (alat units)
         1           C   tau(   1) = (   0.5933004   0.5003870   0.5265470  )
         2           C   tau(   2) = (   0.5522070   0.5826937   0.4827937  )
         3           C   tau(   3) = (   0.4518737   0.5883204   0.4981604  )
         4           C   tau(   4) = (   0.4022337   0.5003870   0.5116670  )
         5           C   tau(   5) = (   0.4518737   0.4124537   0.4981604  )
         6           C   tau(   6) = (   0.5522070   0.4180804   0.4827937  )
         7           H   tau(   7) = (   0.5801004   0.5003870   0.5991670  )
         8           H   tau(   8) = (   0.6661537   0.5003870   0.5148270  )
         9           H   tau(   9) = (   0.5653937   0.5797737   0.4102137  )
        10           H   tau(  10) = (   0.5838004   0.6438737   0.5093537  )
        11           H   tau(  11) = (   0.4216937   0.6243804   0.4412537  )
        12           H   tau(  12) = (   0.4401070   0.6293937   0.5583804  )
        13           H   tau(  13) = (   0.3427270   0.5003870   0.4679737  )
        14           H   tau(  14) = (   0.3768537   0.5003870   0.5810204  )
        15           H   tau(  15) = (   0.4216937   0.3763937   0.4412537  )
        16           H   tau(  16) = (   0.4401070   0.3713804   0.5583804  )
        17           H   tau(  17) = (   0.5838004   0.3569004   0.5093537  )
        18           H   tau(  18) = (   0.5653937   0.4210004   0.4102137  )

   Crystallographic axes

     site n.     atom                  positions (cryst. coord.)
         1           C   tau(   1) = (  0.5933004  0.5003870  0.5265470  )
         2           C   tau(   2) = (  0.5522070  0.5826937  0.4827937  )
         3           C   tau(   3) = (  0.4518737  0.5883204  0.4981604  )
         4           C   tau(   4) = (  0.4022337  0.5003870  0.5116670  )
         5           C   tau(   5) = (  0.4518737  0.4124537  0.4981604  )
         6           C   tau(   6) = (  0.5522070  0.4180804  0.4827937  )
         7           H   tau(   7) = (  0.5801004  0.5003870  0.5991670  )
         8           H   tau(   8) = (  0.6661537  0.5003870  0.5148270  )
         9           H   tau(   9) = (  0.5653937  0.5797737  0.4102137  )
        10           H   tau(  10) = (  0.5838004  0.6438737  0.5093537  )
        11           H   tau(  11) = (  0.4216937  0.6243804  0.4412537  )
        12           H   tau(  12) = (  0.4401070  0.6293937  0.5583804  )
        13           H   tau(  13) = (  0.3427270  0.5003870  0.4679737  )
        14           H   tau(  14) = (  0.3768537  0.5003870  0.5810204  )
        15           H   tau(  15) = (  0.4216937  0.3763937  0.4412537  )
        16           H   tau(  16) = (  0.4401070  0.3713804  0.5583804  )
        17           H   tau(  17) = (  0.5838004  0.3569004  0.5093537  )
        18           H   tau(  18) = (  0.5653937  0.4210004  0.4102137  )

     number of k points=     1
                       cart. coord. in units 2pi/alat
        k(    1) = (   0.0000000   0.0000000   0.0000000), wk =   2.0000000

                       cryst. coord.
        k(    1) = (   0.0000000   0.0000000   0.0000000), wk =   2.0000000

     Dense  grid:   714818 G-vectors     FFT dimensions: ( 144, 144, 144)

     Dynamical RAM for                 wfc:      28.64 MB

     Dynamical RAM for     wfc (w. buffer):      28.64 MB

     Dynamical RAM for           str. fact:      21.81 MB

     Dynamical RAM for           local pot:       0.00 MB

     Dynamical RAM for          nlocal pot:       8.18 MB

     Dynamical RAM for                qrad:       0.02 MB

     Dynamical RAM for          rho,v,vnew:     101.07 MB

     Dynamical RAM for               rhoin:      33.69 MB

     Dynamical RAM for            rho*nmix:     174.52 MB

     Dynamical RAM for           G-vectors:      46.36 MB

     Dynamical RAM for          h,s,v(r/c):       0.01 MB

     Dynamical RAM for          <psi|beta>:       0.00 MB

     Dynamical RAM for      wfcinit/wfcrot:     196.50 MB

     Estimated static dynamical RAM per process >     560.91 MB

     Estimated max dynamical RAM per process >     757.41 MB

     Initial potential from superposition of free atoms

     starting charge   29.99975, renormalised to   36.00000

     negative rho (up, down):  8.423E-04 0.000E+00
     Starting wfcs are   72 randomized atomic wfcs

     total cpu time spent up to now is        2.9 secs

     Self-consistent Calculation

     iteration #  1     ecut=    60.00 Ry     beta= 0.50
     CG style diagonalization
     ethr =  1.00E-02,  avg # of iterations =  3.0

     negative rho (up, down):  2.988E-04 0.000E+00

     total cpu time spent up to now is        6.6 secs

     total energy              =     -81.26342803 Ry
     estimated scf accuracy    <       4.59316978 Ry

     iteration #  2     ecut=    60.00 Ry     beta= 0.50
     CG style diagonalization
     ethr =  1.00E-02,  avg # of iterations =  4.0

     negative rho (up, down):  1.533E-04 0.000E+00

     total cpu time spent up to now is       10.4 secs

     total energy              =     -82.48538417 Ry
     estimated scf accuracy    <       0.81491068 Ry

     iteration #  3     ecut=    60.00 Ry     beta= 0.50
     CG style diagonalization
     ethr =  2.26E-03,  avg # of iterations =  3.7

     negative rho (up, down):  5.993E-06 0.000E+00

     total cpu time spent up to now is       13.9 secs

     total energy              =     -82.60373573 Ry
     estimated scf accuracy    <       0.05187524 Ry

     iteration #  4     ecut=    60.00 Ry     beta= 0.50
     CG style diagonalization
     ethr =  1.44E-04,  avg # of iterations =  4.2

     negative rho (up, down):  5.733E-06 0.000E+00

     total cpu time spent up to now is       18.1 secs

     total energy              =     -82.61341480 Ry
     estimated scf accuracy    <       0.00953833 Ry

     iteration #  5     ecut=    60.00 Ry     beta= 0.50
     CG style diagonalization
     ethr =  2.65E-05,  avg # of iterations =  3.7

     negative rho (up, down):  9.984E-08 0.000E+00

     total cpu time spent up to now is       21.8 secs

     total energy              =     -82.61132964 Ry
     estimated scf accuracy    <       0.00425004 Ry

     iteration #  6     ecut=    60.00 Ry     beta= 0.50
     CG style diagonalization
     ethr =  1.18E-05,  avg # of iterations =  4.2

     negative rho (up, down):  1.987E-07 0.000E+00

     total cpu time spent up to now is       26.1 secs

     total energy              =     -82.61269048 Ry
     estimated scf accuracy    <       0.00138390 Ry

     iteration #  7     ecut=    60.00 Ry     beta= 0.50
     CG style diagonalization
     ethr =  3.84E-06,  avg # of iterations =  3.7

     total cpu time spent up to now is       29.8 secs

     total energy              =     -82.61285540 Ry
     estimated scf accuracy    <       0.00007576 Ry

     iteration #  8     ecut=    60.00 Ry     beta= 0.50
     CG style diagonalization
     ethr =  2.10E-07,  avg # of iterations =  3.6

     total cpu time spent up to now is       33.4 secs

     total energy              =     -82.61286755 Ry
     estimated scf accuracy    <       0.00000670 Ry

     iteration #  9     ecut=    60.00 Ry     beta= 0.50
     CG style diagonalization
     ethr =  1.86E-08,  avg # of iterations =  4.3

     total cpu time spent up to now is       37.9 secs

     total energy              =     -82.61287147 Ry
     estimated scf accuracy    <       0.00000393 Ry

     iteration # 10     ecut=    60.00 Ry     beta= 0.50
     CG style diagonalization
     ethr =  1.09E-08,  avg # of iterations =  3.0

     total cpu time spent up to now is       41.0 secs

     total energy              =     -82.61287095 Ry
     estimated scf accuracy    <       0.00000140 Ry

     iteration # 11     ecut=    60.00 Ry     beta= 0.50
     CG style diagonalization
     ethr =  3.88E-09,  avg # of iterations =  3.7

     total cpu time spent up to now is       44.7 secs

     total energy              =     -82.61287130 Ry
     estimated scf accuracy    <       0.00000002 Ry

     iteration # 12     ecut=    60.00 Ry     beta= 0.50
     CG style diagonalization
     ethr =  4.30E-11,  avg # of iterations =  4.0

     total cpu time spent up to now is       48.8 secs

     total energy              =     -82.61287131 Ry
     estimated scf accuracy    <          1.8E-09 Ry

     iteration # 13     ecut=    60.00 Ry     beta= 0.50
     CG style diagonalization
     ethr =  4.90E-12,  avg # of iterations =  3.5

     total cpu time spent up to now is       52.2 secs

     total energy              =     -82.61287130 Ry
     estimated scf accuracy    <          2.9E-09 Ry

     iteration # 14     ecut=    60.00 Ry     beta= 0.50
     CG style diagonalization
     ethr =  4.90E-12,  avg # of iterations =  3.7

     total cpu time spent up to now is       55.7 secs

     End of self-consistent calculation

          k = 0.0000 0.0000 0.0000 ( 89463 PWs)   bands (ev):

   -20.1255 -17.8823 -17.8765 -14.6014 -14.4485 -12.4229 -11.2619 -11.1552
   -10.2546  -9.8462  -8.9960  -8.5212  -8.5166  -8.0410  -7.7606  -6.8254
    -6.6477  -6.4902  -0.5063   0.0399   0.2346

     occupation numbers 
     1.0000   1.0000   1.0000   1.0000   1.0000   1.0000   1.0000   1.0000
     1.0000   1.0000   1.0000   1.0000   1.0000   1.0000   1.0000   1.0000
     1.0000   1.0000   0.0000   0.0000   0.0000

     highest occupied, lowest unoccupied level (ev):    -6.4902   -0.5063

!    total energy              =     -82.61287131 Ry
     estimated scf accuracy    <          2.0E-11 Ry

     The total energy is the sum of the following terms:
     one-electron contribution =    -431.91400479 Ry
     hartree contribution      =     220.42372214 Ry
     xc contribution           =     -29.73072246 Ry
     ewald contribution        =     158.63755525 Ry
     Dispersion Correction     =      -0.02942144 Ry

     convergence has been achieved in  14 iterations

     Forces acting on atoms (cartesian axes, Ry/au):

     atom    1 type  2   force =     0.01019881    0.00002983   -0.01042423
     atom    2 type  2   force =     0.01697315    0.01121770    0.00099757
     atom    3 type  2   force =    -0.01005617    0.03502900   -0.00136827
     atom    4 type  2   force =    -0.03938685    0.00005403    0.01201511
     atom    5 type  2   force =    -0.01007678   -0.03511895   -0.00128903
     atom    6 type  2   force =     0.01697817   -0.01120720    0.00100681
     atom    7 type  1   force =     0.00434812   -0.00000015   -0.00399854
     atom    8 type  1   force =    -0.00639811   -0.00000032    0.00943968
     atom    9 type  1   force =     0.00516000   -0.00033268    0.00654230
     atom   10 type  1   force =    -0.00145298   -0.00454370   -0.00923634
     atom   11 type  1   force =     0.00321800    0.00144510    0.01047249
     atom   12 type  1   force =     0.00061863    0.00028078   -0.01026893
     atom   13 type  1   force =     0.00464888   -0.00000045    0.01044811
     atom   14 type  1   force =    -0.00231503   -0.00000032   -0.01185072
     atom   15 type  1   force =     0.00321816   -0.00144529    0.01047329
     atom   16 type  1   force =     0.00061748   -0.00028466   -0.01026373
     atom   17 type  1   force =    -0.00145364    0.00454504   -0.00923658
     atom   18 type  1   force =     0.00516016    0.00033222    0.00654101
     The non-local contrib.  to forces
     atom    1 type  2   force =    -0.03414115    0.00005901   -0.03634235
     atom    2 type  2   force =    -0.03094970   -0.02130350    0.03279366
     atom    3 type  2   force =     0.00651081   -0.03819142   -0.00119331
     atom    4 type  2   force =     0.03950733    0.00009130   -0.01602378
     atom    5 type  2   force =     0.00646756    0.03803189   -0.00105405
     atom    6 type  2   force =    -0.03093652    0.02133494    0.03281518
     atom    7 type  1   force =     0.00000000    0.00000000    0.00000000
     atom    8 type  1   force =     0.00000000    0.00000000    0.00000000
     atom    9 type  1   force =     0.00000000    0.00000000    0.00000000
     atom   10 type  1   force =     0.00000000    0.00000000    0.00000000
     atom   11 type  1   force =     0.00000000    0.00000000    0.00000000
     atom   12 type  1   force =     0.00000000    0.00000000    0.00000000
     atom   13 type  1   force =     0.00000000    0.00000000    0.00000000
     atom   14 type  1   force =     0.00000000    0.00000000    0.00000000
     atom   15 type  1   force =     0.00000000    0.00000000    0.00000000
     atom   16 type  1   force =     0.00000000    0.00000000    0.00000000
     atom   17 type  1   force =     0.00000000    0.00000000    0.00000000
     atom   18 type  1   force =     0.00000000    0.00000000    0.00000000
     The ionic contribution  to forces
     atom    1 type  2   force =     6.13243550   -0.00000000    3.25312066
     atom    2 type  2   force =     3.53925487    5.41858782   -1.96486514
     atom    3 type  2   force =    -3.20796839    5.67518053   -0.18419995
     atom    4 type  2   force =    -6.26927127   -0.00000000    0.98758554
     atom    5 type  2   force =    -3.20796839   -5.67518053   -0.18419995
     atom    6 type  2   force =     3.53925487   -5.41858782   -1.96486514
     atom    7 type  1   force =     0.56536807    0.00000000    3.36303014
     atom    8 type  1   force =     3.46596526   -0.00000000   -0.05191857
     atom    9 type  1   force =     1.04529797    0.80907705   -3.16649926
     atom   10 type  1   force =     1.64606011    2.94981025    0.76655838
     atom   11 type  1   force =    -1.56512067    2.13770087   -2.21397830
     atom   12 type  1   force =    -0.90819517    2.38522504    2.32408290
     atom   13 type  1   force =    -3.08345499   -0.00000000   -1.54552487
     atom   14 type  1   force =    -1.90970002   -0.00000000    2.87150985
     atom   15 type  1   force =    -1.56512067   -2.13770087   -2.21397830
     atom   16 type  1   force =    -0.90819517   -2.38522504    2.32408290
     atom   17 type  1   force =     1.64606011   -2.94981025    0.76655838
     atom   18 type  1   force =     1.04529797   -0.80907705   -3.16649926
     The local contribution  to forces
     atom    1 type  2   force =    -6.08904865   -0.00002895   -3.22858695
     atom    2 type  2   force =    -3.49206560   -5.38669235    1.93395777
     atom    3 type  2   force =     3.19175369   -5.60294171    0.18373868
     atom    4 type  2   force =     6.19166003   -0.00003705   -0.95987649
     atom    5 type  2   force =     3.19177633    5.60301174    0.18367867
     atom    6 type  2   force =    -3.49207376    5.38667186    1.93394549
     atom    7 type  1   force =    -0.55927799    0.00000007   -3.36726975
     atom    8 type  1   force =    -3.47256358   -0.00000010    0.06220568
     atom    9 type  1   force =    -1.03957813   -0.80803878    3.17348207
     atom   10 type  1   force =    -1.64731638   -2.95448693   -0.77671605
     atom   11 type  1   force =     1.56819733   -2.13575287    2.22523073
     atom   12 type  1   force =     0.90824174   -2.38451468   -2.33517473
     atom   13 type  1   force =     3.08788661   -0.00000023    1.55681367
     atom   14 type  1   force =     1.90657129   -0.00000010   -2.88405423
     atom   15 type  1   force =     1.56819748    2.13575312    2.22523153
     atom   16 type  1   force =     0.90824058    2.38451124   -2.33516954
     atom   17 type  1   force =    -1.64731703    2.95448871   -0.77671628
     atom   18 type  1   force =    -1.03957797    0.80803876    3.17348079
     The core correction contribution to forces
     atom    1 type  2   force =     0.00000000    0.00000000    0.00000000
     atom    2 type  2   force =     0.00000000    0.00000000    0.00000000
     atom    3 type  2   force =     0.00000000    0.00000000    0.00000000
     atom    4 type  2   force =     0.00000000    0.00000000    0.00000000
     atom    5 type  2   force =     0.00000000    0.00000000    0.00000000
     atom    6 type  2   force =     0.00000000    0.00000000    0.00000000
     atom    7 type  1   force =     0.00000000    0.00000000    0.00000000
     atom    8 type  1   force =     0.00000000    0.00000000    0.00000000
     atom    9 type  1   force =     0.00000000    0.00000000    0.00000000
     atom   10 type  1   force =     0.00000000    0.00000000    0.00000000
     atom   11 type  1   force =     0.00000000    0.00000000    0.00000000
     atom   12 type  1   force =     0.00000000    0.00000000    0.00000000
     atom   13 type  1   force =     0.00000000    0.00000000    0.00000000
     atom   14 type  1   force =     0.00000000    0.00000000    0.00000000
     atom   15 type  1   force =     0.00000000    0.00000000    0.00000000
     atom   16 type  1   force =     0.00000000    0.00000000    0.00000000
     atom   17 type  1   force =     0.00000000    0.00000000    0.00000000
     atom   18 type  1   force =     0.00000000    0.00000000    0.00000000
     The Hubbard contrib.    to forces
     atom    1 type  2   force =     0.00000000    0.00000000    0.00000000
     atom    2 type  2   force =     0.00000000    0.00000000    0.00000000
     atom    3 type  2   force =     0.00000000    0.00000000    0.00000000
     atom    4 type  2   force =     0.00000000    0.00000000    0.00000000
     atom    5 type  2   force =     0.00000000    0.00000000    0.00000000
     atom    6 type  2   force =     0.00000000    0.00000000    0.00000000
     atom    7 type  1   force =     0.00000000    0.00000000    0.00000000
     atom    8 type  1   force =     0.00000000    0.00000000    0.00000000
     atom    9 type  1   force =     0.00000000    0.00000000    0.00000000
     atom   10 type  1   force =     0.00000000    0.00000000    0.00000000
     atom   11 type  1   force =     0.00000000    0.00000000    0.00000000
     atom   12 type  1   force =     0.00000000    0.00000000    0.00000000
     atom   13 type  1   force =     0.00000000    0.00000000    0.00000000
     atom   14 type  1   force =     0.00000000    0.00000000    0.00000000
     atom   15 type  1   force =     0.00000000    0.00000000    0.00000000
     atom   16 type  1   force =     0.00000000    0.00000000    0.00000000
     atom   17 type  1   force =     0.00000000    0.00000000    0.00000000
     atom   18 type  1   force =     0.00000000    0.00000000    0.00000000
     The SCF correction term to forces
     atom    1 type  2   force =     0.00000295   -0.00000000    0.00000159
     atom    2 type  2   force =     0.00000149    0.00000273   -0.00000084
     atom    3 type  2   force =    -0.00000166    0.00000253    0.00000005
     atom    4 type  2   force =    -0.00000295   -0.00000000    0.00000059
     atom    5 type  2   force =    -0.00000166   -0.00000254    0.00000005
     atom    6 type  2   force =     0.00000148   -0.00000273   -0.00000084
     atom    7 type  1   force =     0.00000013   -0.00000000    0.00000042
     atom    8 type  1   force =     0.00000044   -0.00000000    0.00000002
     atom    9 type  1   force =     0.00000013    0.00000016   -0.00000033
     atom   10 type  1   force =     0.00000018    0.00000035    0.00000006
     atom   11 type  1   force =    -0.00000018    0.00000024   -0.00000018
     atom   12 type  1   force =    -0.00000014    0.00000026    0.00000022
     atom   13 type  1   force =    -0.00000033   -0.00000000   -0.00000011
     atom   14 type  1   force =    -0.00000025   -0.00000000    0.00000029
     atom   15 type  1   force =    -0.00000018   -0.00000024   -0.00000018
     atom   16 type  1   force =    -0.00000014   -0.00000026    0.00000022
     atom   17 type  1   force =     0.00000018   -0.00000035    0.00000006
     atom   18 type  1   force =     0.00000013   -0.00000016   -0.00000033

     Dispersion contribution to forces:
     atom    1 type  2   force =     0.00095928    0.00000000    0.00133822
     atom    2 type  2   force =     0.00074120    0.00062322   -0.00093249
     atom    3 type  2   force =    -0.00034152    0.00097928    0.00024164
     atom    4 type  2   force =    -0.00127088    0.00000000    0.00028466
     atom    5 type  2   force =    -0.00034152   -0.00097928    0.00024164
     atom    6 type  2   force =     0.00074120   -0.00062322   -0.00093249
     atom    7 type  1   force =    -0.00173298    0.00000000    0.00019605
     atom    8 type  1   force =     0.00020888    0.00000000   -0.00089205
     atom    9 type  1   force =    -0.00055087   -0.00137088   -0.00048478
     atom   10 type  1   force =    -0.00018779    0.00013285    0.00087666
     atom   11 type  1   force =     0.00015064   -0.00050292   -0.00082436
     atom   12 type  1   force =     0.00058131   -0.00042961    0.00077808
     atom   13 type  1   force =     0.00022670    0.00000000   -0.00088517
     atom   14 type  1   force =     0.00082305   -0.00000000    0.00064877
     atom   15 type  1   force =     0.00015064    0.00050292   -0.00082436
     atom   16 type  1   force =     0.00058131    0.00042961    0.00077808
     atom   17 type  1   force =    -0.00018779   -0.00013285    0.00087666
     atom   18 type  1   force =    -0.00055087    0.00137088   -0.00048478

     Total force =     0.081593     Total SCF correction =     0.000008

     Total Dispersion Force =     0.005172

     Writing output data file ./temp.save/

     init_run     :     14.04s CPU      2.66s WALL (       1 calls)
     electrons    :    299.74s CPU     52.87s WALL (       1 calls)
     forces       :      3.19s CPU      0.46s WALL (       1 calls)

     Called by init_run:
     wfcinit      :     10.59s CPU      1.82s WALL (       1 calls)
     wfcinit:atom :      0.21s CPU      0.06s WALL (       1 calls)
     wfcinit:wfcr :      9.38s CPU      1.51s WALL (       1 calls)
     potinit      :      2.74s CPU      0.49s WALL (       1 calls)
     hinit0       :      0.53s CPU      0.18s WALL (       1 calls)

     Called by electrons:
     c_bands      :    237.91s CPU     41.45s WALL (      14 calls)
     sum_band     :     21.85s CPU      3.72s WALL (      14 calls)
     v_of_rho     :     31.51s CPU      5.85s WALL (      15 calls)
     v_h          :      1.86s CPU      0.34s WALL (      15 calls)
     v_xc         :     29.65s CPU      5.51s WALL (      15 calls)
     mix_rho      :      9.42s CPU      1.95s WALL (      14 calls)

     Called by c_bands:
     init_us_2    :      0.35s CPU      0.06s WALL (      29 calls)
     rcgdiagg     :    203.32s CPU     35.40s WALL (      14 calls)
     wfcrot       :     43.77s CPU      7.51s WALL (      14 calls)

     Called by sum_band:
     sum_band:wei :      0.00s CPU      0.00s WALL (      14 calls)
     sum_band:loo :     18.55s CPU      3.17s WALL (      14 calls)
     sum_band:buf :      0.00s CPU      0.00s WALL (      14 calls)
     sum_band:ini :      0.16s CPU      0.03s WALL (      14 calls)

     Called by *cgdiagg:
     h_psi        :    230.96s CPU     40.05s WALL (     837 calls)

     Called by h_psi:
     h_psi:calbec :      2.23s CPU      0.39s WALL (     837 calls)
     vloc_psi     :    226.99s CPU     39.34s WALL (     837 calls)
     add_vuspsi   :      1.14s CPU      0.18s WALL (     837 calls)
     hs_1psi      :    189.58s CPU     32.92s WALL (     823 calls)
     s_1psi       :      1.29s CPU      0.26s WALL (     823 calls)

     General routines
     calbec       :      3.33s CPU      0.61s WALL (    1664 calls)
     fft          :      9.19s CPU      1.37s WALL (     121 calls)
     ffts         :      1.24s CPU      0.19s WALL (      14 calls)
     fftw         :    214.00s CPU     36.70s WALL (    2158 calls)

     Parallel routines

     PWSCF        :   5m17.37s CPU     56.28s WALL


   This run was terminated on:  11:51:56  28Oct2021            

=------------------------------------------------------------------------------=
   JOB DONE.
=------------------------------------------------------------------------------=
