
     Program PWSCF v.6.7MaX starts on 28Oct2021 at 11:48:11 

     This program is part of the open-source Quantum ESPRESSO suite
     for quantum simulation of materials; please cite
         "P. Giannozzi et al., J. Phys.:Condens. Matter 21 395502 (2009);
         "P. Giannozzi et al., J. Phys.:Condens. Matter 29 465901 (2017);
          URL http://www.quantum-espresso.org", 
     in publications or presentations arising from this work. More details at
     http://www.quantum-espresso.org/quote

     Parallel version (MPI & OpenMP), running on       8 processor cores
     Number of MPI processes:                 1
     Threads/MPI process:                     8

     MPI processes distributed on     1 nodes
     Reading input from md.in
Warning: card &CELL ignored
Warning: card / ignored

     Current dimensions of program PWSCF are:
     Max number of different atomic species (ntypx) = 10
     Max number of k-points (npk) =  40000
     Max angular momentum in pseudopotentials (lmaxx) =  3

     -------------------------------------------------
     Parameters for Dispersion (Grimme-D2) Correction:
     -------------------------------------------------
       atom      VdW radius       C_6     

        H          1.892          4.857
        C          2.744         60.710

     gamma-point specific algorithms are used

     Subspace diagonalization in iterative solution of the eigenvalue problem:
     a serial algorithm will be used


     G-vector sticks info
     --------------------
     sticks:   dense  smooth     PW     G-vecs:    dense   smooth      PW
     Sum       15329   15329   3833              1429635  1429635  178925



     bravais-lattice index     =            0
     lattice parameter (alat)  =      28.3459  a.u.
     unit-cell volume          =   22775.6289 (a.u.)^3
     number of atoms/cell      =           18
     number of atomic types    =            2
     number of electrons       =        36.00
     number of Kohn-Sham states=           21
     kinetic-energy cutoff     =      60.0000  Ry
     charge density cutoff     =     240.0000  Ry
     scf convergence threshold =      1.0E-10
     mixing beta               =       0.5000
     number of iterations used =            8  plain     mixing
     Exchange-correlation=  SLA  PW   PBX  PBC
                           (   1   4   3   4   0   0   0)

     celldm(1)=  28.345892  celldm(2)=   0.000000  celldm(3)=   0.000000
     celldm(4)=   0.000000  celldm(5)=   0.000000  celldm(6)=   0.000000

     crystal axes: (cart. coord. in units of alat)
               a(1) = (   1.000000   0.000000   0.000000 )  
               a(2) = (   0.000000   1.000000   0.000000 )  
               a(3) = (   0.000000   0.000000   1.000000 )  

     reciprocal axes: (cart. coord. in units 2 pi/alat)
               b(1) = (  1.000000  0.000000  0.000000 )  
               b(2) = (  0.000000  1.000000  0.000000 )  
               b(3) = (  0.000000  0.000000  1.000000 )  


     PseudoPot. # 1 for H  read from file:
     /Users/rca/source_installs/espresso/pseudo/H.pbe-tm-new-gipaw-dc.UPF
     MD5 check sum: 0e5abdcbf773fd5bd1c97111569d22ab
     Pseudo is Norm-conserving, Zval =  1.0
     Generated by new atomic code, or converted to UPF format
     Using radial grid of 1261 points,  0 beta functions with: 

     PseudoPot. # 2 for C  read from file:
     /Users/rca/source_installs/espresso/pseudo/C.pbe-tm-new-gipaw-dc.UPF
     MD5 check sum: c9fa938d11269a3b0a4c160d8754c0f1
     Pseudo is Norm-conserving, Zval =  4.0
     Generated by new atomic code, or converted to UPF format
     Using radial grid of 1441 points,  1 beta functions with: 
                l(1) =   0

     atomic species   valence    mass     pseudopotential
        H              1.00     1.00790     H ( 1.00)
        C              4.00    12.01070     C ( 1.00)

     No symmetry found


                                    s                        frac. trans.

      isym =  1     identity                                     

 cryst.   s( 1) = (     1          0          0      )
                  (     0          1          0      )
                  (     0          0          1      )

 cart.    s( 1) = (  1.0000000  0.0000000  0.0000000 )
                  (  0.0000000  1.0000000  0.0000000 )
                  (  0.0000000  0.0000000  1.0000000 )


   Cartesian axes

     site n.     atom                  positions (alat units)
         1           C   tau(   1) = (   0.5904988   0.4997121   0.4724121  )
         2           C   tau(   2) = (   0.5508521   0.5840121   0.5141988  )
         3           C   tau(   3) = (   0.4485721   0.5840121   0.5141988  )
         4           C   tau(   4) = (   0.4089254   0.4997121   0.4724121  )
         5           C   tau(   5) = (   0.4485721   0.4154121   0.5141988  )
         6           C   tau(   6) = (   0.5508521   0.4154121   0.5141988  )
         7           H   tau(   7) = (   0.6635654   0.4997121   0.4827788  )
         8           H   tau(   8) = (   0.5774788   0.4997121   0.3997721  )
         9           H   tau(   9) = (   0.5753721   0.6428454   0.4769988  )
        10           H   tau(  10) = (   0.5745188   0.5893321   0.5839121  )
        11           H   tau(  11) = (   0.4240521   0.6428454   0.4769988  )
        12           H   tau(  12) = (   0.4249054   0.5893321   0.5839121  )
        13           H   tau(  13) = (   0.4219454   0.4997121   0.3997721  )
        14           H   tau(  14) = (   0.3358588   0.4997121   0.4827788  )
        15           H   tau(  15) = (   0.4240521   0.3565788   0.4769988  )
        16           H   tau(  16) = (   0.4249054   0.4100921   0.5839121  )
        17           H   tau(  17) = (   0.5745188   0.4100921   0.5839121  )
        18           H   tau(  18) = (   0.5753721   0.3565788   0.4769988  )

   Crystallographic axes

     site n.     atom                  positions (cryst. coord.)
         1           C   tau(   1) = (  0.5904988  0.4997121  0.4724121  )
         2           C   tau(   2) = (  0.5508521  0.5840121  0.5141988  )
         3           C   tau(   3) = (  0.4485721  0.5840121  0.5141988  )
         4           C   tau(   4) = (  0.4089254  0.4997121  0.4724121  )
         5           C   tau(   5) = (  0.4485721  0.4154121  0.5141988  )
         6           C   tau(   6) = (  0.5508521  0.4154121  0.5141988  )
         7           H   tau(   7) = (  0.6635654  0.4997121  0.4827788  )
         8           H   tau(   8) = (  0.5774788  0.4997121  0.3997721  )
         9           H   tau(   9) = (  0.5753721  0.6428454  0.4769988  )
        10           H   tau(  10) = (  0.5745188  0.5893321  0.5839121  )
        11           H   tau(  11) = (  0.4240521  0.6428454  0.4769988  )
        12           H   tau(  12) = (  0.4249054  0.5893321  0.5839121  )
        13           H   tau(  13) = (  0.4219454  0.4997121  0.3997721  )
        14           H   tau(  14) = (  0.3358588  0.4997121  0.4827788  )
        15           H   tau(  15) = (  0.4240521  0.3565788  0.4769988  )
        16           H   tau(  16) = (  0.4249054  0.4100921  0.5839121  )
        17           H   tau(  17) = (  0.5745188  0.4100921  0.5839121  )
        18           H   tau(  18) = (  0.5753721  0.3565788  0.4769988  )

     number of k points=     1
                       cart. coord. in units 2pi/alat
        k(    1) = (   0.0000000   0.0000000   0.0000000), wk =   2.0000000

                       cryst. coord.
        k(    1) = (   0.0000000   0.0000000   0.0000000), wk =   2.0000000

     Dense  grid:   714818 G-vectors     FFT dimensions: ( 144, 144, 144)

     Dynamical RAM for                 wfc:      28.64 MB

     Dynamical RAM for     wfc (w. buffer):      28.64 MB

     Dynamical RAM for           str. fact:      21.81 MB

     Dynamical RAM for           local pot:       0.00 MB

     Dynamical RAM for          nlocal pot:       8.18 MB

     Dynamical RAM for                qrad:       0.02 MB

     Dynamical RAM for          rho,v,vnew:     101.07 MB

     Dynamical RAM for               rhoin:      33.69 MB

     Dynamical RAM for            rho*nmix:     174.52 MB

     Dynamical RAM for           G-vectors:      46.36 MB

     Dynamical RAM for          h,s,v(r/c):       0.01 MB

     Dynamical RAM for          <psi|beta>:       0.00 MB

     Dynamical RAM for      wfcinit/wfcrot:     196.50 MB

     Estimated static dynamical RAM per process >     560.91 MB

     Estimated max dynamical RAM per process >     757.41 MB

     Initial potential from superposition of free atoms

     starting charge   29.99975, renormalised to   36.00000

     negative rho (up, down):  8.409E-04 0.000E+00
     Starting wfcs are   72 randomized atomic wfcs

     total cpu time spent up to now is        2.8 secs

     Self-consistent Calculation

     iteration #  1     ecut=    60.00 Ry     beta= 0.50
     CG style diagonalization
     ethr =  1.00E-02,  avg # of iterations =  3.0

     negative rho (up, down):  2.983E-04 0.000E+00

     total cpu time spent up to now is        6.4 secs

     total energy              =     -81.30434792 Ry
     estimated scf accuracy    <       4.50837111 Ry

     iteration #  2     ecut=    60.00 Ry     beta= 0.50
     CG style diagonalization
     ethr =  1.00E-02,  avg # of iterations =  4.0

     negative rho (up, down):  1.549E-04 0.000E+00

     total cpu time spent up to now is       10.3 secs

     total energy              =     -82.50180103 Ry
     estimated scf accuracy    <       0.81071070 Ry

     iteration #  3     ecut=    60.00 Ry     beta= 0.50
     CG style diagonalization
     ethr =  2.25E-03,  avg # of iterations =  3.7

     negative rho (up, down):  6.517E-06 0.000E+00

     total cpu time spent up to now is       14.0 secs

     total energy              =     -82.61823265 Ry
     estimated scf accuracy    <       0.05169076 Ry

     iteration #  4     ecut=    60.00 Ry     beta= 0.50
     CG style diagonalization
     ethr =  1.44E-04,  avg # of iterations =  4.2

     negative rho (up, down):  5.852E-06 0.000E+00

     total cpu time spent up to now is       18.1 secs

     total energy              =     -82.62811920 Ry
     estimated scf accuracy    <       0.00972997 Ry

     iteration #  5     ecut=    60.00 Ry     beta= 0.50
     CG style diagonalization
     ethr =  2.70E-05,  avg # of iterations =  3.1

     negative rho (up, down):  4.639E-08 0.000E+00

     total cpu time spent up to now is       21.3 secs

     total energy              =     -82.62616608 Ry
     estimated scf accuracy    <       0.00409586 Ry

     iteration #  6     ecut=    60.00 Ry     beta= 0.50
     CG style diagonalization
     ethr =  1.14E-05,  avg # of iterations =  4.1

     negative rho (up, down):  1.620E-07 0.000E+00

     total cpu time spent up to now is       25.3 secs

     total energy              =     -82.62751329 Ry
     estimated scf accuracy    <       0.00133709 Ry

     iteration #  7     ecut=    60.00 Ry     beta= 0.50
     CG style diagonalization
     ethr =  3.71E-06,  avg # of iterations =  3.6

     total cpu time spent up to now is       28.7 secs

     total energy              =     -82.62765664 Ry
     estimated scf accuracy    <       0.00009187 Ry

     iteration #  8     ecut=    60.00 Ry     beta= 0.50
     CG style diagonalization
     ethr =  2.55E-07,  avg # of iterations =  3.7

     total cpu time spent up to now is       32.2 secs

     total energy              =     -82.62767192 Ry
     estimated scf accuracy    <       0.00000558 Ry

     iteration #  9     ecut=    60.00 Ry     beta= 0.50
     CG style diagonalization
     ethr =  1.55E-08,  avg # of iterations =  4.5

     total cpu time spent up to now is       36.4 secs

     total energy              =     -82.62767474 Ry
     estimated scf accuracy    <       0.00000592 Ry

     iteration # 10     ecut=    60.00 Ry     beta= 0.50
     CG style diagonalization
     ethr =  1.55E-08,  avg # of iterations =  3.2

     total cpu time spent up to now is       39.5 secs

     total energy              =     -82.62767488 Ry
     estimated scf accuracy    <       0.00000080 Ry

     iteration # 11     ecut=    60.00 Ry     beta= 0.50
     CG style diagonalization
     ethr =  2.22E-09,  avg # of iterations =  3.7

     total cpu time spent up to now is       43.2 secs

     total energy              =     -82.62767510 Ry
     estimated scf accuracy    <          2.2E-09 Ry

     iteration # 12     ecut=    60.00 Ry     beta= 0.50
     CG style diagonalization
     ethr =  5.97E-12,  avg # of iterations =  4.8

     total cpu time spent up to now is       47.8 secs

     total energy              =     -82.62767511 Ry
     estimated scf accuracy    <          8.2E-09 Ry

     iteration # 13     ecut=    60.00 Ry     beta= 0.50
     CG style diagonalization
     ethr =  5.97E-12,  avg # of iterations =  3.8

     total cpu time spent up to now is       51.3 secs

     total energy              =     -82.62767511 Ry
     estimated scf accuracy    <          7.3E-10 Ry

     iteration # 14     ecut=    60.00 Ry     beta= 0.50
     CG style diagonalization
     ethr =  2.02E-12,  avg # of iterations =  3.7

     total cpu time spent up to now is       54.6 secs

     End of self-consistent calculation

          k = 0.0000 0.0000 0.0000 ( 89463 PWs)   bands (ev):

   -20.1572 -17.8106 -17.7882 -14.6733 -14.3914 -12.1553 -11.5821 -11.3093
   -10.3284  -9.4343  -8.7378  -8.5374  -8.5102  -8.3360  -7.8890  -6.8462
    -6.6458  -6.5819  -0.4661   0.2368   0.2857

     occupation numbers 
     1.0000   1.0000   1.0000   1.0000   1.0000   1.0000   1.0000   1.0000
     1.0000   1.0000   1.0000   1.0000   1.0000   1.0000   1.0000   1.0000
     1.0000   1.0000   0.0000   0.0000   0.0000

     highest occupied, lowest unoccupied level (ev):    -6.5819   -0.4661

!    total energy              =     -82.62767511 Ry
     estimated scf accuracy    <          6.0E-12 Ry

     The total energy is the sum of the following terms:
     one-electron contribution =    -433.88429822 Ry
     hartree contribution      =     221.38989645 Ry
     xc contribution           =     -29.70628796 Ry
     ewald contribution        =     159.60308053 Ry
     Dispersion Correction     =      -0.03006590 Ry

     convergence has been achieved in  14 iterations

     Forces acting on atoms (cartesian axes, Ry/au):

     atom    1 type  2   force =     0.01129323    0.00003421   -0.00172453
     atom    2 type  2   force =     0.02068943    0.01117610    0.00095448
     atom    3 type  2   force =    -0.02058538    0.01114403    0.00093990
     atom    4 type  2   force =    -0.01140221   -0.00002563   -0.00167194
     atom    5 type  2   force =    -0.02056127   -0.01117634    0.00093363
     atom    6 type  2   force =     0.02064472   -0.01122348    0.00094539
     atom    7 type  1   force =    -0.00702019    0.00000606   -0.00816321
     atom    8 type  1   force =     0.00438281    0.00000594    0.00576067
     atom    9 type  1   force =     0.00216570   -0.00502325    0.00998993
     atom   10 type  1   force =     0.00360391    0.00201421   -0.00888341
     atom   11 type  1   force =    -0.00217830   -0.00502424    0.00999023
     atom   12 type  1   force =    -0.00361646    0.00201404   -0.00888437
     atom   13 type  1   force =    -0.00439655    0.00000576    0.00576253
     atom   14 type  1   force =     0.00700588    0.00000587   -0.00816262
     atom   15 type  1   force =    -0.00217814    0.00503598    0.00999069
     atom   16 type  1   force =    -0.00361663   -0.00200247   -0.00888418
     atom   17 type  1   force =     0.00360406   -0.00200242   -0.00888350
     atom   18 type  1   force =     0.00216538    0.00503565    0.00999034
     The non-local contrib.  to forces
     atom    1 type  2   force =    -0.04028454    0.00005311    0.04004296
     atom    2 type  2   force =    -0.02483432   -0.02992742   -0.02155511
     atom    3 type  2   force =     0.02504988   -0.02999129   -0.02158527
     atom    4 type  2   force =     0.04011328   -0.00005815    0.04014106
     atom    5 type  2   force =     0.02508153    0.02990240   -0.02159475
     atom    6 type  2   force =    -0.02489808    0.02981825   -0.02157391
     atom    7 type  1   force =     0.00000000    0.00000000    0.00000000
     atom    8 type  1   force =     0.00000000    0.00000000    0.00000000
     atom    9 type  1   force =     0.00000000    0.00000000    0.00000000
     atom   10 type  1   force =     0.00000000    0.00000000    0.00000000
     atom   11 type  1   force =     0.00000000    0.00000000    0.00000000
     atom   12 type  1   force =     0.00000000    0.00000000    0.00000000
     atom   13 type  1   force =     0.00000000    0.00000000    0.00000000
     atom   14 type  1   force =     0.00000000    0.00000000    0.00000000
     atom   15 type  1   force =     0.00000000    0.00000000    0.00000000
     atom   16 type  1   force =     0.00000000    0.00000000    0.00000000
     atom   17 type  1   force =     0.00000000    0.00000000    0.00000000
     atom   18 type  1   force =     0.00000000    0.00000000    0.00000000
     The ionic contribution  to forces
     atom    1 type  2   force =     6.09537954    0.00000000   -3.10450111
     atom    2 type  2   force =     3.57931302    5.63677512    1.52121484
     atom    3 type  2   force =    -3.57931302    5.63677512    1.52121484
     atom    4 type  2   force =    -6.09537954    0.00000000   -3.10450111
     atom    5 type  2   force =    -3.57931302   -5.63677512    1.52121484
     atom    6 type  2   force =     3.57931302   -5.63677512    1.52121484
     atom    7 type  1   force =     3.47599292    0.00000000    0.00797750
     atom    8 type  1   force =     0.59042334    0.00000000   -3.37501560
     atom    9 type  1   force =     1.39543839    2.92300721   -1.22792719
     atom   10 type  1   force =     1.43079265    1.08322983    2.94248195
     atom   11 type  1   force =    -1.39543839    2.92300721   -1.22792719
     atom   12 type  1   force =    -1.43079265    1.08322983    2.94248195
     atom   13 type  1   force =    -0.59042334    0.00000000   -3.37501560
     atom   14 type  1   force =    -3.47599292    0.00000000    0.00797750
     atom   15 type  1   force =    -1.39543839   -2.92300721   -1.22792719
     atom   16 type  1   force =    -1.43079265   -1.08322983    2.94248195
     atom   17 type  1   force =     1.43079265   -1.08322983    2.94248195
     atom   18 type  1   force =     1.39543839   -2.92300721   -1.22792719
     The local contribution  to forces
     atom    1 type  2   force =    -6.04483149   -0.00002480    3.06394409
     atom    2 type  2   force =    -3.53446781   -5.59626600   -1.49923099
     atom    3 type  2   force =     3.53436976   -5.59623421   -1.49921541
     atom    4 type  2   force =     6.04490725    0.00002661    3.06389858
     atom    5 type  2   force =     3.53436221    5.59627898   -1.49921219
     atom    6 type  2   force =    -3.53444875    5.59631598   -1.49922127
     atom    7 type  1   force =    -3.48316854    0.00000015   -0.01702160
     atom    8 type  1   force =    -0.58392544    0.00000003    3.38083911
     atom    9 type  1   force =    -1.39298845   -2.92802519    1.23886078
     atom   10 type  1   force =    -1.42682495   -1.08000255   -2.95193656
     atom   11 type  1   force =     1.39298930   -2.92802619    1.23886108
     atom   12 type  1   force =     1.42682587   -1.08000273   -2.95193752
     atom   13 type  1   force =     0.58392516   -0.00000015    3.38084097
     atom   14 type  1   force =     3.48316770   -0.00000004   -0.01702101
     atom   15 type  1   force =     1.39298947    2.92802611    1.23886154
     atom   16 type  1   force =     1.42682570    1.08000248   -2.95193734
     atom   17 type  1   force =    -1.42682480    1.08000253   -2.95193666
     atom   18 type  1   force =    -1.39298876    2.92802578    1.23886120
     The core correction contribution to forces
     atom    1 type  2   force =     0.00000000    0.00000000    0.00000000
     atom    2 type  2   force =     0.00000000    0.00000000    0.00000000
     atom    3 type  2   force =     0.00000000    0.00000000    0.00000000
     atom    4 type  2   force =     0.00000000    0.00000000    0.00000000
     atom    5 type  2   force =     0.00000000    0.00000000    0.00000000
     atom    6 type  2   force =     0.00000000    0.00000000    0.00000000
     atom    7 type  1   force =     0.00000000    0.00000000    0.00000000
     atom    8 type  1   force =     0.00000000    0.00000000    0.00000000
     atom    9 type  1   force =     0.00000000    0.00000000    0.00000000
     atom   10 type  1   force =     0.00000000    0.00000000    0.00000000
     atom   11 type  1   force =     0.00000000    0.00000000    0.00000000
     atom   12 type  1   force =     0.00000000    0.00000000    0.00000000
     atom   13 type  1   force =     0.00000000    0.00000000    0.00000000
     atom   14 type  1   force =     0.00000000    0.00000000    0.00000000
     atom   15 type  1   force =     0.00000000    0.00000000    0.00000000
     atom   16 type  1   force =     0.00000000    0.00000000    0.00000000
     atom   17 type  1   force =     0.00000000    0.00000000    0.00000000
     atom   18 type  1   force =     0.00000000    0.00000000    0.00000000
     The Hubbard contrib.    to forces
     atom    1 type  2   force =     0.00000000    0.00000000    0.00000000
     atom    2 type  2   force =     0.00000000    0.00000000    0.00000000
     atom    3 type  2   force =     0.00000000    0.00000000    0.00000000
     atom    4 type  2   force =     0.00000000    0.00000000    0.00000000
     atom    5 type  2   force =     0.00000000    0.00000000    0.00000000
     atom    6 type  2   force =     0.00000000    0.00000000    0.00000000
     atom    7 type  1   force =     0.00000000    0.00000000    0.00000000
     atom    8 type  1   force =     0.00000000    0.00000000    0.00000000
     atom    9 type  1   force =     0.00000000    0.00000000    0.00000000
     atom   10 type  1   force =     0.00000000    0.00000000    0.00000000
     atom   11 type  1   force =     0.00000000    0.00000000    0.00000000
     atom   12 type  1   force =     0.00000000    0.00000000    0.00000000
     atom   13 type  1   force =     0.00000000    0.00000000    0.00000000
     atom   14 type  1   force =     0.00000000    0.00000000    0.00000000
     atom   15 type  1   force =     0.00000000    0.00000000    0.00000000
     atom   16 type  1   force =     0.00000000    0.00000000    0.00000000
     atom   17 type  1   force =     0.00000000    0.00000000    0.00000000
     atom   18 type  1   force =     0.00000000    0.00000000    0.00000000
     The SCF correction term to forces
     atom    1 type  2   force =     0.00000043   -0.00000001   -0.00000028
     atom    2 type  2   force =     0.00000029    0.00000044   -0.00000002
     atom    3 type  2   force =    -0.00000028    0.00000045   -0.00000002
     atom    4 type  2   force =    -0.00000044   -0.00000001   -0.00000028
     atom    5 type  2   force =    -0.00000028   -0.00000045   -0.00000002
     atom    6 type  2   force =     0.00000028   -0.00000045   -0.00000002
     atom    7 type  1   force =    -0.00000018   -0.00000000   -0.00000005
     atom    8 type  1   force =     0.00000007   -0.00000000    0.00000019
     atom    9 type  1   force =    -0.00000004   -0.00000016    0.00000013
     atom   10 type  1   force =    -0.00000004    0.00000004   -0.00000018
     atom   11 type  1   force =     0.00000004   -0.00000016    0.00000013
     atom   12 type  1   force =     0.00000004    0.00000004   -0.00000018
     atom   13 type  1   force =    -0.00000007   -0.00000000    0.00000019
     atom   14 type  1   force =     0.00000018   -0.00000000   -0.00000005
     atom   15 type  1   force =     0.00000004    0.00000016    0.00000013
     atom   16 type  1   force =     0.00000004   -0.00000004   -0.00000018
     atom   17 type  1   force =    -0.00000004   -0.00000004   -0.00000018
     atom   18 type  1   force =    -0.00000004    0.00000016    0.00000013

     Dispersion contribution to forces:
     atom    1 type  2   force =     0.00103603    0.00000000   -0.00120067
     atom    2 type  2   force =     0.00068499    0.00058805    0.00053527
     atom    3 type  2   force =    -0.00068499    0.00058805    0.00053527
     atom    4 type  2   force =    -0.00103603    0.00000000   -0.00120067
     atom    5 type  2   force =    -0.00068499   -0.00058805    0.00053527
     atom    6 type  2   force =     0.00068499   -0.00058805    0.00053527
     atom    7 type  1   force =     0.00016234    0.00000000    0.00089044
     atom    8 type  1   force =    -0.00210843    0.00000000   -0.00005352
     atom    9 type  1   force =    -0.00027748   -0.00001102   -0.00093429
     atom   10 type  1   force =    -0.00035702   -0.00121901    0.00058090
     atom   11 type  1   force =     0.00027748   -0.00001102   -0.00093429
     atom   12 type  1   force =     0.00035702   -0.00121901    0.00058090
     atom   13 type  1   force =     0.00210843    0.00000000   -0.00005352
     atom   14 type  1   force =    -0.00016234    0.00000000    0.00089044
     atom   15 type  1   force =     0.00027748    0.00001102   -0.00093429
     atom   16 type  1   force =     0.00035702    0.00121901    0.00058090
     atom   17 type  1   force =    -0.00035702    0.00121901    0.00058090
     atom   18 type  1   force =    -0.00027748    0.00001102   -0.00093429

     Total force =     0.060889     Total SCF correction =     0.000001

     Total Dispersion Force =     0.005619

     Writing output data file ./temp.save/

     init_run     :     12.99s CPU      2.67s WALL (       1 calls)
     electrons    :    309.11s CPU     51.80s WALL (       1 calls)
     forces       :      3.35s CPU      0.50s WALL (       1 calls)

     Called by init_run:
     wfcinit      :     10.19s CPU      1.84s WALL (       1 calls)
     wfcinit:atom :      0.23s CPU      0.06s WALL (       1 calls)
     wfcinit:wfcr :      8.96s CPU      1.53s WALL (       1 calls)
     potinit      :      2.17s CPU      0.47s WALL (       1 calls)
     hinit0       :      0.46s CPU      0.17s WALL (       1 calls)

     Called by electrons:
     c_bands      :    244.07s CPU     40.51s WALL (      14 calls)
     sum_band     :     22.29s CPU      3.66s WALL (      14 calls)
     v_of_rho     :     32.77s CPU      5.81s WALL (      15 calls)
     v_h          :      1.95s CPU      0.31s WALL (      15 calls)
     v_xc         :     30.82s CPU      5.50s WALL (      15 calls)
     mix_rho      :     10.24s CPU      1.90s WALL (      14 calls)

     Called by c_bands:
     init_us_2    :      0.39s CPU      0.06s WALL (      29 calls)
     rcgdiagg     :    209.04s CPU     34.71s WALL (      14 calls)
     wfcrot       :     43.77s CPU      7.30s WALL (      14 calls)

     Called by sum_band:
     sum_band:wei :      0.00s CPU      0.00s WALL (      14 calls)
     sum_band:loo :     18.94s CPU      3.12s WALL (      14 calls)
     sum_band:buf :      0.00s CPU      0.00s WALL (      14 calls)
     sum_band:ini :      0.20s CPU      0.03s WALL (      14 calls)

     Called by *cgdiagg:
     h_psi        :    236.06s CPU     39.17s WALL (     855 calls)

     Called by h_psi:
     h_psi:calbec :      2.24s CPU      0.39s WALL (     855 calls)
     vloc_psi     :    232.03s CPU     38.48s WALL (     855 calls)
     add_vuspsi   :      1.20s CPU      0.18s WALL (     855 calls)
     hs_1psi      :    194.62s CPU     32.25s WALL (     841 calls)
     s_1psi       :      1.27s CPU      0.25s WALL (     841 calls)

     General routines
     calbec       :      3.31s CPU      0.59s WALL (    1700 calls)
     fft          :      9.06s CPU      1.36s WALL (     121 calls)
     ffts         :      1.19s CPU      0.17s WALL (      14 calls)
     fftw         :    217.33s CPU     35.71s WALL (    2194 calls)

     Parallel routines

     PWSCF        :   5m25.91s CPU     55.20s WALL


   This run was terminated on:  11:49: 6  28Oct2021            

=------------------------------------------------------------------------------=
   JOB DONE.
=------------------------------------------------------------------------------=
