18
Lattice="14.99999999685098 0.0 0.0 0.0 14.99999999685098 0.0 0.0 0.0 14.99999999685098" Properties=species:S:1:pos:R:3:forces_eV_per_au:R:3:forces:R:3 energy_eV=-1124.2066926686875 energy=-1124.2066926686875 free_energy=-1124.2066926686875 pbc="T T T"
C        8.85748200       7.49568150       7.08618150       0.29036059       0.00087957      -0.04433945       0.29036059       0.00087957      -0.04433945
C        8.26278150       8.76018150       7.71298200       0.53194659       0.28734906       0.02454067       0.53194659       0.28734906       0.02454067
C        6.72858150       8.76018150       7.71298200      -0.52927136       0.28652451       0.02416580      -0.52927136       0.28652451       0.02416580
C        6.13388100       7.49568150       7.08618150      -0.29316258      -0.00065897      -0.04298730      -0.29316258      -0.00065897      -0.04298730
C        6.72858150       6.23118150       7.71298200      -0.52865146      -0.28735523       0.02400459      -0.52865146      -0.28735523       0.02400459
C        8.26278150       6.23118150       7.71298200       0.53079705      -0.28856725       0.02430695       0.53079705      -0.28856725       0.02430695
H        9.95348100       7.49568150       7.24168200      -0.18049633       0.00015581      -0.20988455      -0.18049633       0.00015581      -0.20988455
H        8.66218200       7.49568150       5.99658150       0.11268657       0.00015272       0.14811277       0.11268657       0.00015272       0.14811277
H        8.63058150       9.64268100       7.15498200       0.05568238      -0.12915294       0.25685141       0.05568238      -0.12915294       0.25685141
H        8.61778200       8.83998150       8.75868150       0.09266024       0.05178742      -0.22840164       0.09266024       0.05178742      -0.22840164
H        6.36078150       9.64268100       7.15498200      -0.05600634      -0.12917839       0.25685912      -0.05600634      -0.12917839       0.25685912
H        6.37358100       8.83998150       8.75868150      -0.09298292       0.05178305      -0.22842632      -0.09298292       0.05178305      -0.22842632
H        6.32918100       7.49568150       5.99658150      -0.11303984       0.00014810       0.14816059      -0.11303984       0.00014810       0.14816059
H        5.03788200       7.49568150       7.24168200       0.18012840       0.00015092      -0.20986938       0.18012840       0.00015092      -0.20986938
H        6.36078150       5.34868200       7.15498200      -0.05600223       0.12948024       0.25687095      -0.05600223       0.12948024       0.25687095
H        6.37358100       6.15138150       8.75868150      -0.09298729      -0.05148557      -0.22842143      -0.09298729      -0.05148557      -0.22842143
H        8.61778200       6.15138150       8.75868150       0.09266410      -0.05148428      -0.22840395       0.09266410      -0.05148428      -0.22840395
H        8.63058150       5.34868200       7.15498200       0.05567415       0.12947176       0.25686195       0.05567415       0.12947176       0.25686195
18
Lattice="14.99999999685098 0.0 0.0 0.0 14.99999999685098 0.0 0.0 0.0 14.99999999685098" Properties=species:S:1:pos:R:3:forces_eV_per_au:R:3:forces:R:3 energy_eV=-1124.2282915685742 energy=-1124.2282915685742 free_energy=-1124.2282915685742 pbc="T T T"
C        8.86345760       7.49569958       7.08526890      -0.03721055      -0.00106495       0.04742605      -0.03721055      -0.00106495       0.04742605
C        8.27372986       8.76609562       7.71348657      -0.15888646      -0.14445820      -0.02418225      -0.15888646      -0.14445820      -0.02418225
C        6.71768817       8.76607865       7.71347885       0.15993701      -0.14394192      -0.02378090       0.15993701      -0.14394192      -0.02378090
C        6.12784769       7.49566792       7.08529673       0.03547197      -0.00103153       0.04683830       0.03547197      -0.00103153       0.04683830
C        6.71770092       6.22526722       7.71347553       0.15900962       0.14403397      -0.02355722       0.15900962       0.14403397      -0.02355722
C        8.27370620       6.22524227       7.71348176      -0.15831079       0.14583451      -0.02409021      -0.15831079       0.14583451      -0.02409021
H        9.94976656       7.49568469       7.23736169       0.12995872       0.00013987      -0.17416550       0.12995872       0.00013987      -0.17416550
H        8.66450077       7.49568462       5.99962990       0.09672053       0.00023320       0.05559136       0.09672053       0.00023320       0.05559136
H        8.63172752       9.64002329       7.16026792       0.18057577       0.15335191       0.06965144       0.18057577       0.15335191       0.06965144
H        8.61968859       8.84104736       8.75398058       0.16594928       0.08011532      -0.01002499       0.16594928       0.08011532      -0.01002499
H        6.35962877       9.64002277       7.16026808      -0.18010295       0.15267211       0.06996126      -0.18010295       0.15267211       0.06996126
H        6.37166773       8.84104726       8.75398008      -0.16542606       0.08008909      -0.01062765      -0.16542606       0.08008909      -0.01062765
H        6.32685493       7.49568453       5.99963088      -0.09721084       0.00009410       0.05651079      -0.09721084       0.00009410       0.05651079
H        5.04158883       7.49568459       7.23736201      -0.13139880       0.00004602      -0.17364331      -0.13139880       0.00004602      -0.17364331
H        6.35962886       5.35134641       7.16026833      -0.18025156      -0.15284566       0.06980262      -0.18025156      -0.15284566       0.06980262
H        6.37166765       6.15032182       8.75398017      -0.16537078      -0.07988186      -0.01077138      -0.16537078      -0.07988186      -0.01077138
H        8.61968867       6.15032185       8.75398053       0.16581199      -0.07990680      -0.01029084       0.16581199      -0.07990680      -0.01029084
H        8.63172735       5.35134623       7.16026814       0.18073364      -0.15347917       0.06935268       0.18073364      -0.15347917       0.06935268
18
Lattice="14.99999999685098 0.0 0.0 0.0 14.99999999685098 0.0 0.0 0.0 14.99999999685098" Properties=species:S:1:pos:R:3:forces_eV_per_au:R:3:forces:R:3 energy_eV=-1124.2377883415431 energy=-1124.2377883415431 free_energy=-1124.2377883415431 pbc="T T T"
C        8.86399209       7.49568403       7.08594002      -0.01316919      -0.00028385       0.02824357      -0.01316919      -0.00028385       0.02824357
C        8.27307323       8.76468368       7.71315239      -0.07318645      -0.02486000      -0.02070715      -0.07318645      -0.02486000      -0.02070715
C        6.71837485       8.76467259       7.71315035       0.07337877      -0.02510425      -0.02077271       0.07337877      -0.02510425      -0.02077271
C        6.12727022       7.49564658       7.08596287       0.01326252      -0.00020492       0.02884855       0.01326252      -0.00020492       0.02884855
C        6.71837346       6.22667148       7.71315040       0.07324584       0.02473838      -0.02075009       0.07324584       0.02473838      -0.02075009
C        8.27305517       6.22667397       7.71314827      -0.07307615       0.02478595      -0.02086065      -0.07307615       0.02478595      -0.02086065
H        9.95136066       7.49568786       7.23334971       0.11220423       0.00010747      -0.14697506       0.11220423       0.00010747      -0.14697506
H        8.66671270       7.49568946       6.00124725       0.07313503       0.00017869       0.01596578       0.07313503       0.00017869       0.01596578
H        8.63521490       9.64225239       7.16259026       0.13198784       0.07740178       0.08775432       0.13198784       0.07740178       0.08775432
H        8.62306574       8.84270703       8.75285156       0.13522100       0.05979717      -0.01598403       0.13522100       0.05979717      -0.01598403
H        6.35614858       9.64223949       7.16259604      -0.13146385       0.07700480       0.08796001      -0.13146385       0.07700480       0.08796001
H        6.36829868       8.84270645       8.75284008      -0.13465844       0.05983060      -0.01628048      -0.13465844       0.05983060      -0.01628048
H        6.32463268       7.49568684       6.00126501      -0.07376418       0.00001028       0.01643192      -0.07376418       0.00001028       0.01643192
H        5.03996724       7.49568604       7.23335951      -0.11393072       0.00002982      -0.14635388      -0.11393072       0.00002982      -0.14635388
H        6.35614600       5.34912780       7.16259347      -0.13155846      -0.07721974       0.08789522      -0.13155846      -0.07721974       0.08789522
H        6.36829957       6.14866761       8.75283761      -0.13472066      -0.05963108      -0.01613830      -0.13472066      -0.05963108      -0.01613830
H        8.62306336       6.14866720       8.75284671       0.13514541      -0.05950330      -0.01605191       0.13514541      -0.05950330      -0.01605191
H        8.63521754       5.34911617       7.16258514       0.13194721      -0.07707833       0.08777438       0.13194721      -0.07707833       0.08777438
18
Lattice="14.99999999685098 0.0 0.0 0.0 14.99999999685098 0.0 0.0 0.0 14.99999999685098" Properties=species:S:1:pos:R:3:forces_eV_per_au:R:3:forces:R:3 energy_eV=-1124.2453306568661 energy=-1124.2453306568661 free_energy=-1124.2453306568661 pbc="T T T"
C        8.86478224       7.49567680       7.08654775       0.00271971      -0.00011956       0.00613105       0.00271971      -0.00011956       0.00613105
C        8.27309465       8.76468837       7.71272637      -0.03350250       0.01215952       0.00466064      -0.03350250       0.01215952       0.00466064
C        6.71837394       8.76467156       7.71272347       0.03325928       0.01194277       0.00467684       0.03325928       0.01194277       0.00467684
C        6.12646117       7.49563452       7.08658532      -0.00256879       0.00011236       0.00674143      -0.00256879       0.00011236       0.00674143
C        6.71836788       6.22666222       7.71272441       0.03332844      -0.01221685       0.00471875       0.03332844      -0.01221685       0.00471875
C        8.27307678       6.22666959       7.71271869      -0.03355881      -0.01229887       0.00469843      -0.03355881      -0.01229887       0.00469843
H        9.95346106       7.49569135       7.22867566       0.08928181       0.00007071      -0.11778404       0.08928181       0.00007071      -0.11778404
H        8.66912450       7.49569482       6.00247461       0.04962872       0.00015067      -0.01412590       0.04962872       0.00015067      -0.01412590
H        8.63896829       9.64400347       7.16576827       0.10358049       0.05191212       0.07272982       0.10358049       0.05191212       0.07272982
H        8.62696664       8.84451218       8.75151182       0.10444515       0.04379823      -0.01495071       0.10444515       0.04379823      -0.01495071
H        6.35240652       9.64397920       7.16577970      -0.10307167       0.05165243       0.07282778      -0.10307167       0.05165243       0.07282778
H        6.36441015       8.84451211       8.75149134      -0.10385894       0.04386405      -0.01506589      -0.10385894       0.04386405      -0.01506589
H        6.32220449       7.49568815       6.00250642      -0.05034657      -0.00003471      -0.01366336      -0.05034657      -0.00003471      -0.01366336
H        5.03782395       7.49568751       7.22870041      -0.09019816       0.00000206      -0.11715129      -0.09019816       0.00000206      -0.11715129
H        6.35240135       5.34738427       7.16577510      -0.10318454      -0.05199542       0.07277842      -0.10318454      -0.05199542       0.07277842
H        6.36441007       6.14686820       8.75149097      -0.10392682      -0.04371724      -0.01490597      -0.10392682      -0.04371724      -0.01490597
H        8.62696209       6.14687018       8.75150428       0.10437779      -0.04352106      -0.01500727       0.10437779      -0.04352106      -0.01500727
H        8.63897090       5.34737219       7.16576207       0.10359540      -0.05176119       0.07269151       0.10359540      -0.05176119       0.07269151
18
Lattice="14.99999999685098 0.0 0.0 0.0 14.99999999685098 0.0 0.0 0.0 14.99999999685098" Properties=species:S:1:pos:R:3:forces_eV_per_au:R:3:forces:R:3 energy_eV=-1124.253230393716 energy=-1124.253230393716 free_energy=-1124.253230393716 pbc="T T T"
C        8.86627965       7.49566703       7.08694879       0.00472209       0.00008048      -0.00939173       0.00472209       0.00008048      -0.00939173
C        8.27359291       8.76537095       7.71282252      -0.00112152       0.03566043       0.00490695      -0.00112152       0.03566043       0.00490695
C        6.71789434       8.76534745       7.71282235       0.00055073       0.03549896       0.00486401       0.00055073       0.03549896       0.00486401
C        6.12493310       7.49562377       7.08700876      -0.00403560       0.00031290      -0.00888136      -0.00403560       0.00031290      -0.00888136
C        6.71788480       6.22597324       7.71282615       0.00058775      -0.03563858       0.00477377       0.00058775      -0.03563858       0.00477377
C        8.27357199       6.22598957       7.71281605      -0.00116651      -0.03607283       0.00475294      -0.00116651      -0.03607283       0.00475294
H        9.95670233       7.49569610       7.22162904       0.05948401       0.00000540      -0.07709427       0.05948401       0.00000540      -0.07709427
H        8.67247089       7.49570326       6.00344578       0.01724927       0.00008665      -0.04296339       0.01724927       0.00008665      -0.04296339
H        8.64466675       9.64655339       7.17049552       0.06446733       0.02392257       0.05018048       0.06446733       0.02392257       0.05018048
H        8.63275800       8.84712699       8.74950850       0.06919559       0.02336413       0.00911096       0.06919559       0.02336413       0.00911096
H        6.34672820       9.64651322       7.17051340      -0.06408192       0.02392463       0.05012983      -0.06408192       0.02392463       0.05012983
H        6.35864213       8.84712887       8.74947790      -0.06870528       0.02349911       0.00939455      -0.06870528       0.02349911       0.00939455
H        6.31882642       7.49568882       6.00350326      -0.01805531      -0.00007713      -0.04264817      -0.01805531      -0.00007713      -0.04264817
H        5.03453583       7.49568893       7.22168073      -0.05980180      -0.00002700      -0.07640547      -0.05980180      -0.00002700      -0.07640547
H        6.34671763       5.34483848       7.17050555      -0.06413514      -0.02422031       0.05021056      -0.06413514      -0.02422031       0.05021056
H        6.35864033       6.14426029       8.74948139      -0.06878447      -0.02343072       0.00956913      -0.06878447      -0.02343072       0.00956913
H        8.63274976       6.14426873       8.74949621       0.06918761      -0.02313581       0.00923386       0.06918761      -0.02313581       0.00923386
H        8.64467161       5.34482756       7.17048477       0.06444316      -0.02375288       0.05025684       0.06444316      -0.02375288       0.05025684
18
Lattice="14.99999999685098 0.0 0.0 0.0 14.99999999685098 0.0 0.0 0.0 14.99999999685098" Properties=species:S:1:pos:R:3:forces_eV_per_au:R:3:forces:R:3 energy_eV=-1124.2587219230938 energy=-1124.2587219230938 free_energy=-1124.2587219230938 pbc="T T T"
C        8.86845310       7.49565684       7.08703377       0.00881631       0.00018589      -0.04164596       0.00881631       0.00018589      -0.04164596
C        8.27478969       8.76715451       7.71299219       0.02739022       0.03349787       0.02928281       0.02739022       0.03349787       0.02928281
C        6.71670862       8.76712267       7.71299505      -0.02791318       0.03360123       0.02947898      -0.02791318       0.03360123       0.02947898
C        6.12273647       7.49561606       7.08712828      -0.00837460       0.00037641      -0.04128703      -0.00837460       0.00037641      -0.04128703
C        6.71669050       6.22418185       7.71299830      -0.02789004      -0.03348888       0.02941985      -0.02789004      -0.03348888       0.02941985
C        8.27476596       6.22419986       7.71297971       0.02729869      -0.03357912       0.02945661       0.02729869      -0.03357912       0.02945661
H        9.96175977       7.49570141       7.21102737       0.00438090      -0.00008253      -0.02207189       0.00438090      -0.00008253      -0.02207189
H        8.67683751       7.49571549       6.00344102      -0.02404290       0.00000823      -0.05442691      -0.02404290       0.00000823      -0.05442691
H        8.65321550       9.65022196       7.17756675       0.01553769       0.00203246       0.00823524       0.01553769       0.00203246       0.00823524
H        8.64157583       8.85086252       8.74749266       0.01197131      -0.00617476       0.02096683       0.01197131      -0.00617476       0.02096683
H        6.33821201       9.65016494       7.17758942      -0.01546159       0.00237853       0.00799510      -0.01546159       0.00237853       0.00799510
H        6.34986419       8.85087139       8.74746243      -0.01169852      -0.00597190       0.02153659      -0.01169852      -0.00597190       0.02153659
H        6.31439740       7.49568755       6.00353891       0.02327131      -0.00010362      -0.05452024       0.02327131      -0.00010362      -0.05452024
H        5.02942116       7.49568980       7.21113188      -0.00360057      -0.00004474      -0.02139261      -0.00360057      -0.00004474      -0.02139261
H        6.33819419       5.34116604       7.17758166      -0.01549912      -0.00260221       0.00819051      -0.01549912      -0.00260221       0.00819051
H        6.34985857       6.14052974       8.74747409      -0.01173066       0.00592768       0.02155844      -0.01173066       0.00592768       0.02155844
H        8.64156353       6.14055503       8.74748012       0.01193609       0.00627092       0.02099280       0.01193609       0.00627092       0.02099280
H        8.65322268       5.34116901       7.17755304       0.01560814      -0.00223172       0.00823062       0.01560814      -0.00223172       0.00823062
18
Lattice="14.99999999685098 0.0 0.0 0.0 14.99999999685098 0.0 0.0 0.0 14.99999999685098" Properties=species:S:1:pos:R:3:forces_eV_per_au:R:3:forces:R:3 energy_eV=-1124.2593227504497 energy=-1124.2593227504497 free_energy=-1124.2593227504497 pbc="T T T"
C        8.86905878       7.49565685       7.08614346      -0.00350416       0.00014475      -0.02272290      -0.00350416       0.00014475      -0.02272290
C        8.27545215       8.76793628       7.71368363       0.01972679       0.02085370       0.00823576       0.01972679       0.02085370       0.00823576
C        6.71604032       8.76790705       7.71369301      -0.02000858       0.02107276       0.00835069      -0.02000858       0.02107276       0.00835069
C        6.12213025       7.49562023       7.08625084       0.00381860       0.00019103      -0.02259305       0.00381860       0.00019103      -0.02259305
C        6.71601875       6.22339765       7.71369543      -0.02003661      -0.02092955       0.00828049      -0.02003661      -0.02092955       0.00828049
C        8.27542693       6.22341926       7.71367489       0.01971856      -0.02101723       0.00807763       0.01971856      -0.02101723       0.00807763
H        9.96293409       7.49570073       7.20818235      -0.00693375      -0.00008947      -0.01394643      -0.00693375      -0.00008947      -0.01394643
H        8.67729153       7.49571840       6.00238676      -0.03196781      -0.00001903      -0.04600243      -0.03196781      -0.00001903      -0.04600243
H        8.65551639       9.65125579       7.17921917       0.00205251      -0.00417933       0.00485039       0.00205251      -0.00417933       0.00485039
H        8.64379885       8.85156800       8.74752331       0.00336763      -0.01319387       0.02773706       0.00336763      -0.01319387       0.02773706
H        6.33591917       9.65120252       7.17923767      -0.00203811      -0.00388622       0.00468918      -0.00203811      -0.00388622       0.00468918
H        6.34765537       8.85158284       8.74750511      -0.00317197      -0.01296684       0.02829165      -0.00317197      -0.01296684       0.02829165
H        6.31391318       7.49568522       6.00249141       0.03128158      -0.00007996      -0.04605848       0.03128158      -0.00007996      -0.04605848
H        5.02825267       7.49568908       7.20831325       0.00754079      -0.00002288      -0.01325764       0.00754079      -0.00002288      -0.01325764
H        6.33589883       5.34011947       7.17923421      -0.00204454       0.00380343       0.00491646      -0.00204454       0.00380343       0.00491646
H        6.34764859       6.13981987       8.74751797      -0.00320822       0.01291928       0.02828548      -0.00320822       0.01291928       0.02828548
H        8.64378459       6.13985604       8.74751036       0.00336635       0.01324889       0.02788053       0.00336635       0.01324889       0.02788053
H        8.65552623       5.34013140       7.17920383       0.00204068       0.00415156       0.00498563       0.00204068       0.00415156       0.00498563
18
Lattice="14.99999999685098 0.0 0.0 0.0 14.99999999685098 0.0 0.0 0.0 14.99999999685098" Properties=species:S:1:pos:R:3:forces_eV_per_au:R:3:forces:R:3 energy_eV=-1124.2597294245816 energy=-1124.2597294245816 free_energy=-1124.2597294245816 pbc="T T T"
C        8.86913302       7.49565961       7.08507592      -0.01145504       0.00002185      -0.02017262      -0.01145504       0.00002185      -0.02017262
C        8.27610598       8.76868507       7.71421884       0.00496197      -0.00086081       0.00967378       0.00496197      -0.00086081       0.00967378
C        6.71537661       8.76866556       7.71423580      -0.00491055      -0.00074665       0.00979642      -0.00491055      -0.00074665       0.00979642
C        6.12206269       7.49562638       7.08519175       0.01133728      -0.00001363      -0.01994302       0.01133728      -0.00001363      -0.01994302
C        6.71535065       6.22264442       7.71423592      -0.00490772       0.00080913       0.00977636      -0.00490772       0.00080913       0.00977636
C        8.27608101       6.22266839       7.71420663       0.00496634       0.00093897       0.00973214       0.00496634       0.00093897       0.00973214
H        9.96343427       7.49569766       7.20617159      -0.01641649      -0.00007199      -0.01405262      -0.01641649      -0.00007199      -0.01405262
H        8.67658355       7.49571943       6.00048797      -0.03066323      -0.00001414      -0.01473756      -0.03066323      -0.00001414      -0.01473756
H        8.65690995       9.65185458       7.18020994      -0.00213941      -0.00103615       0.00257984      -0.00213941      -0.00103615       0.00257984
H        8.64517098       8.85157353       8.74845964      -0.00517049      -0.01722099       0.01177462      -0.00517049      -0.01722099       0.01177462
H        6.33453035       9.65181159       7.18022172       0.00213736      -0.00082764       0.00253202       0.00213736      -0.00082764       0.00253202
H        6.34629685       8.85159854       8.74846428       0.00535458      -0.01699345       0.01206439       0.00535458      -0.01699345       0.01206439
H        6.31458411       7.49568170       6.00059539       0.03015853      -0.00004191      -0.01480210       0.03015853      -0.00004191      -0.01480210
H        5.02777324       7.49568807       7.20633803       0.01664918       0.00000848      -0.01339005       0.01664918       0.00000848      -0.01339005
H        6.33450843       5.33950344       7.18022751       0.00212373       0.00086595       0.00272923       0.00212373       0.00086595       0.00272923
H        6.34628850       6.13980358       8.74847709       0.00533864       0.01697597       0.01202685       0.00533864       0.01697597       0.01202685
H        8.64515557       6.13985550       8.74845084      -0.00522705       0.01724773       0.01174403      -0.00522705       0.01724773       0.01174403
H        8.65692091       5.33952961       7.18019781      -0.00213813       0.00095954       0.00266829      -0.00213813       0.00095954       0.00266829
18
Lattice="14.99999999685098 0.0 0.0 0.0 14.99999999685098 0.0 0.0 0.0 14.99999999685098" Properties=species:S:1:pos:R:3:forces_eV_per_au:R:3:forces:R:3 energy_eV=-1124.2599914702082 energy=-1124.2599914702082 free_energy=-1124.2599914702082 pbc="T T T"
C        8.86870131       7.49566235       7.08371734      -0.01587656      -0.00001131       0.00440533      -0.01587656      -0.00001131       0.00440533
C        8.27650277       8.76900662       7.71492539      -0.00833706      -0.01278507      -0.00596599      -0.00833706      -0.01278507      -0.00596599
C        6.71497361       8.76899626       7.71495100       0.00858928      -0.01268839      -0.00590942       0.00858928      -0.01268839      -0.00590942
C        6.12249693       7.49563083       7.08384510       0.01553332      -0.00014887       0.00441124       0.01553332      -0.00014887       0.00441124
C        6.71494562       6.22231942       7.71494920       0.00861448       0.01269559      -0.00582149       0.00861448       0.01269559      -0.00582149
C        8.27647809       6.22234902       7.71491496      -0.00833089       0.01282132      -0.00607372      -0.00833089       0.01282132      -0.00607372
H        9.96308315       7.49569332       7.20499083      -0.01844818      -0.00004474      -0.02060456      -0.01844818      -0.00004474      -0.02060456
H        8.67501382       7.49571917       5.99884555      -0.02784942      -0.00001363       0.00348924      -0.02784942      -0.00001363       0.00348924
H        8.65735165       9.65207911       7.18053755      -0.00401323      -0.00149818       0.00919606      -0.00401323      -0.00149818       0.00919606
H        8.64545984       8.85088753       8.74948756      -0.00399215      -0.01830394       0.00275237      -0.00399215      -0.01830394       0.00275237
H        6.33409035       9.65204983       7.18054334       0.00408754      -0.00150924       0.00932308       0.00408754      -0.00150924       0.00932308
H        6.34602066       8.85092543       8.74951488       0.00421584      -0.01808540       0.00277988       0.00421584      -0.01808540       0.00277988
H        6.31611826       7.49567821       5.99895053       0.02745732      -0.00000926       0.00367771       0.02745732      -0.00000926       0.00367771
H        5.02814682       7.49568760       7.20519718       0.01816356       0.00002674      -0.01994662       0.01816356       0.00002674      -0.01994662
H        6.33406726       5.33926260       7.18056075       0.00406363       0.00157274       0.00943415       0.00406363       0.00157274       0.00943415
H        6.34601105       6.14047527       8.74952626       0.00421095       0.01810854       0.00274362       0.00421095       0.01810854       0.00274362
H        8.64544191       6.14054449       8.74947959      -0.00403098       0.01832271       0.00277345      -0.00403098       0.01832271       0.00277345
H        8.65736356       5.33929961       7.18052965      -0.00405746       0.00155012       0.00933593      -0.00405746       0.00155012       0.00933593
18
Lattice="14.99999999685098 0.0 0.0 0.0 14.99999999685098 0.0 0.0 0.0 14.99999999685098" Properties=species:S:1:pos:R:3:forces_eV_per_au:R:3:forces:R:3 energy_eV=-1124.2602429033952 energy=-1124.2602429033952 free_energy=-1124.2602429033952 pbc="T T T"
C        8.86786150       7.49566572       7.08267416      -0.01852274      -0.00002185       0.00508076      -0.01852274      -0.00002185       0.00508076
C        8.27665076       8.76902716       7.71536617      -0.01487820      -0.01960646      -0.00415207      -0.01487820      -0.01960646      -0.00415207
C        6.71482507       8.76902755       7.71540065       0.01522787      -0.01973527      -0.00420067       0.01522787      -0.01973527      -0.00420067
C        6.12333202       7.49563212       7.08281153       0.01802549      -0.00016892       0.00533735       0.01802549      -0.00016892       0.00533735
C        6.71479689       6.22229361       7.71539996       0.01525924       0.01961469      -0.00413433       0.01525924       0.01961469      -0.00413433
C        8.27662600       6.22232974       7.71535348      -0.01488052       0.01973039      -0.00409165      -0.01488052       0.01973039      -0.00409165
H        9.96215914       7.49568809       7.20359947      -0.01388550      -0.00001337      -0.02581516      -0.01388550      -0.00001337      -0.02581516
H        8.67270196       7.49571823       5.99737177      -0.02241411       0.00000257       0.02579588      -0.02241411       0.00000257       0.02579588
H        8.65741198       9.65209070       7.18095991      -0.00263075       0.00053710       0.01332114      -0.00263075       0.00053710       0.01332114
H        8.64540629       8.84966282       8.75054289      -0.00434311      -0.01783806      -0.01202248      -0.00434311      -0.01783806      -0.01202248
H        6.33403358       9.65207334       7.18096398       0.00278245       0.00039852       0.01355203       0.00278245       0.00039852       0.01355203
H        6.34609148       8.84971825       8.75059127       0.00460562      -0.01765088      -0.01221891       0.00460562      -0.01765088      -0.01221891
H        6.31838815       7.49567473       5.99748001       0.02213128       0.00000360       0.02602342       0.02213128       0.00000360       0.02602342