18
Lattice="20.0 0.0 0.0 0.0 20.0 0.0 0.0 0.0 20.0" Properties=species:S:1:pos:R:3 MD=T iter:=T 0=T energy_eV=-402.3709 pbc="F F F"
C       13.69619950      11.89000000      10.88320000
C       12.93929950      13.20100000      10.88320000
C       11.42549950      13.20100000      10.88320000
C       10.66859950      11.89000000      10.88320000
C       11.42549950      10.57900000      10.88320000
C       12.93929950      10.57900000      10.88320000
H       14.36479900      11.89000000      11.76640000
H       14.36479900      11.89000000      10.00000000
H       13.27360000      13.78000000      10.00000000
H       13.27360000      13.78000000      11.76640000
H       11.09119900      13.78000000      10.00000000
H       11.09119900      13.78000000      11.76640000
H       10.00000000      11.89000000      10.00000000
H       10.00000000      11.89000000      11.76640000
H       11.09119900      10.00000000      10.00000000
H       11.09119900      10.00000000      11.76640000
H       13.27360000      10.00000000      11.76640000
H       13.27360000      10.00000000      10.00000000
18
Lattice="20.0 0.0 0.0 0.0 20.0 0.0 0.0 0.0 20.0" Properties=species:S:1:pos:R:3 MD=T iter:=T 1=T energy_eV=-402.3516 pbc="F F F"
C       13.71406713      11.89176099      10.88739518
C       12.94123806      13.19621845      10.88232237
C       11.43420857      13.20898066      10.87959750
C       10.67308637      11.89888321      10.88675239
C       11.43357724      10.58303941      10.89357212
C       12.94509583      10.57938995      10.88014948
H       14.38076687      11.91788705      11.75559690
H       14.36321194      11.88171121      10.00944790
H       13.26697166      13.75114286      10.00650088
H       13.26455919      13.77593611      11.75167208
H       11.08343265      13.79119128      10.01251753
H       11.07360149      13.75464721      11.76345798
H       10.00216711      11.89323825      10.02708606
H       10.00000000      11.88186175      11.79390438
H       11.08314504      10.01978586      10.00000000
H       11.10205592      10.00325635      11.78548877
H       13.29071179      10.00000000      11.74343162
H       13.27834846      10.00895443      10.00457230
18
Lattice="20.0 0.0 0.0 0.0 20.0 0.0 0.0 0.0 20.0" Properties=species:S:1:pos:R:3 MD=T iter:=T 2=T energy_eV=-402.2588 pbc="F F F"
C       13.72954127      11.89456253      10.88648857
C       12.94096403      13.19294674      10.87641685
C       11.43969786      13.21833050      10.87102579
C       10.67431067      11.90864519      10.88594627
C       11.43857236      10.58753798      10.89876135
C       12.94885095      10.58052845      10.87210052
H       14.39496516      11.94538716      11.73926701
H       14.36099220      11.87526771      10.01386418
H       13.25937650      13.72632918      10.00687614
H       13.25427102      13.77428924      11.73132665
H       11.07403349      13.80339388      10.02168920
H       11.05533370      13.73242632      11.75386161
H       10.00000000      11.89743797      10.04854715
H       10.00199194      11.87614172      11.80803873
H       11.07401664      10.04086421      10.00000000
H       11.11119402      10.00923576      11.79420092
H       13.30530963      10.00000000      11.71504927
H       13.28052583      10.01852681      10.00462549
18
Lattice="20.0 0.0 0.0 0.0 20.0 0.0 0.0 0.0 20.0" Properties=species:S:1:pos:R:3 MD=T iter:=T 3=T energy_eV=-402.154 pbc="F F F"
C       13.75091703      11.90018577      10.88349514
C       12.94732888      13.19278316      10.86854271
C       11.45061989      13.23048159      10.86064642
C       10.68134144      11.92091438      10.88431420
C       11.44931316      10.59447157      10.90169387
C       12.95953133      10.58457173      10.86218315
H       14.41790597      11.97309270      11.72348018
H       14.36953717      11.87316700      10.01291494
H       13.26144507      13.71057285      10.00000000
H       13.25330269      13.77892954      11.71135545
H       11.07215282      13.81928717      10.02840346
H       11.04652896      13.71782282      11.74276921
H       10.00000000      11.90424706      10.06370993
H       10.01682611      11.87592261      11.80939121
H       11.07335461      10.06398794      10.00345204
H       11.12747659      10.01993321      11.79513925
H       13.32677568      10.00000000      11.68744387
H       13.28947290      10.02932782      10.00007088
18
Lattice="20.0 0.0 0.0 0.0 20.0 0.0 0.0 0.0 20.0" Properties=species:S:1:pos:R:3 MD=T iter:=T 4=T energy_eV=-402.0947 pbc="F F F"
C       13.77676543      11.90983998      10.89483760
C       12.95937582      13.19688380      10.87511877
C       11.46579386      13.24634790      10.86505646
C       10.69342666      11.93677304      10.89844458
C       11.46484895      10.60533505      10.91871589
C       12.97621947      10.59300572      10.86695880
H       14.44956971      12.00129286      11.72681127
H       14.38936012      11.87719725      10.02090289
H       13.27317103      13.70693635      10.00000000
H       13.26191398      13.79250498      11.71022803
H       11.07696161      13.84086195      10.04711465
H       11.04728886      13.71420445      11.74838318
H       10.00000000      11.91474353      10.08682845
H       10.04336124      11.88346164      11.81497070
H       11.08033726      10.08887196      10.02601075
H       11.14944136      10.03600391      11.80579858
H       13.35435837      10.00000000      11.67932516
H       13.30444249      10.04184225      10.00491457
18
Lattice="20.0 0.0 0.0 0.0 20.0 0.0 0.0 0.0 20.0" Properties=species:S:1:pos:R:3 MD=T iter:=T 5=T energy_eV=-402.0815 pbc="F F F"
C       13.80629173      11.92373666      10.91325142
C       12.97664623      13.20560182      10.88883048
C       11.48447717      13.26594399      10.87719592
C       10.71020367      11.95633964      10.92085634
C       11.48471370      10.62067288      10.94251891
C       12.99842295      10.60615075      10.87932423
H       14.48923155      12.02946532      11.74268013
H       14.41993336      11.88800552      10.03043894
H       13.29390037      13.71570016      10.00000000
H       13.28005626      13.81552888      11.72115185
H       11.08808209      13.86867901      10.06925772
H       11.05804199      13.72315156      11.76444568
H       10.00000000      11.92904115      10.11060696
H       10.07884281      11.89964331      11.82105816
H       11.09410194      10.11399747      10.05871318
H       11.17570079      10.05653028      11.82118479
H       13.38721482      10.00000000      11.68422866
H       13.32467772      10.05633300      10.01088111
18
Lattice="20.0 0.0 0.0 0.0 20.0 0.0 0.0 0.0 20.0" Properties=species:S:1:pos:R:3 MD=T iter:=T 6=T energy_eV=-402.0726 pbc="F F F"
C       13.83724768      11.94097924      10.93577405
C       12.99707335      13.21837052      10.90664130
C       11.50427214      13.28829328      10.89432281
C       10.72955989      11.97865770      10.94806480
C       11.50679291      10.63990602      10.97014199
C       13.02398606      10.62303194      10.89648339
H       14.53326595      12.05610440      11.76726395
H       14.45761483      11.90498585      10.04050447
H       13.32028959      13.73438699      10.00000000
H       13.30518779      13.84611025      11.73994577
H       11.10359668      13.90155331      10.09153348
H       11.07743933      13.74423653      11.78803295
H       10.00000000      11.94622490      10.13407169
H       10.11736991      11.92381016      11.83039461
H       11.11180576      10.13684762      10.09649558
H       11.20308033      10.07928600      11.84117593
H       13.42225207      10.00000000      11.69839995
H       13.34727011      10.07279695      10.01568518
18
Lattice="20.0 0.0 0.0 0.0 20.0 0.0 0.0 0.0 20.0" Properties=species:S:1:pos:R:3 MD=T iter:=T 7=T energy_eV=-402.0446 pbc="F F F"
C       13.86656256      11.95978399      10.95788393
C       13.01762806      13.23384962      10.92396235
C       11.52183645      13.31164313      10.91212370
C       10.74829944      12.00191182      10.97489966
C       11.52796740      10.66148384      10.99711263
C       13.04976009      10.64163877      10.91405666
H       14.57613479      12.07894685      11.79405523
H       14.49677601      11.92648036      10.04997036
H       13.34737118      13.75858115      10.00000000
H       13.33309744      13.88040410      11.75961395
H       11.12073713      13.93675350      10.11004415
H       11.10293235      13.77527398      11.81376987
H       10.00000000      11.96458037      10.15591887
H       10.15161991      11.95404883      11.84476913
H       11.12957170      10.15448113      10.13294537
H       11.22760051      10.10142713      11.86383866
H       13.45498987      10.00000000      11.71531487
H       13.36798862      10.09096781      10.01692538
18
Lattice="20.0 0.0 0.0 0.0 20.0 0.0 0.0 0.0 20.0" Properties=species:S:1:pos:R:3 MD=T iter:=T 8=T energy_eV=-402.025 pbc="F F F"
C       13.89125264      11.97797585      10.97497991
C       13.03526925      13.25030672      10.93615526
C       11.53392825      13.33393755      10.92616050
C       10.76313909      12.02391960      10.99621841
C       11.54508429      10.68332321      11.01891549
C       13.07257521      10.65950650      10.92752901
H       14.61197228      12.09553409      11.81604982
H       14.53151648      11.95024098      10.05799139
H       13.37010294      13.78324395      10.00000000
H       13.35922156      13.91367986      11.77265785
H       11.13678272      13.97068300      10.12148107
H       11.13162291      13.81295964      11.83558654
H       10.00000000      11.98206078      10.17486165
H       10.17518901      11.98780251      11.86448875
H       11.14376358      10.16434203      10.16234428
H       11.24575135      10.12041572      11.88613560
H       13.48092549      10.00000000      11.72787132
H       13.38258134      10.11041496      10.01290834
18
Lattice="20.0 0.0 0.0 0.0 20.0 0.0 0.0 0.0 20.0" Properties=species:S:1:pos:R:3 MD=T iter:=T 9=T energy_eV=-402.0555 pbc="F F F"
C       13.90925405      11.99360274      10.98376852
C       13.04783035      13.26611819      10.93992717
C       11.53837904      13.35339738      10.93323347
C       10.77164957      12.04274815      11.00849069
C       11.55587828      10.70339710      11.03236019
C       13.09013976      10.67443220      10.93361799
H       14.63621301      12.10393291      11.82793468
H       14.55734203      11.97402674      10.06424108
H       13.38479631      13.80410332      10.00000000
H       13.37994703      13.94166160      11.77339126
H       11.14981797      13.99982544      10.12405273
H       11.16105789      13.85371255      11.84849188
H       10.00000000      11.99684745      10.18997695
H       10.18461971      12.02256051      11.88810190
H       11.15209720      10.16506255      10.18138156
H       11.25556290      10.13485850      11.90487762
H       13.49685517      10.00000000      11.73056404
H       13.38802172      10.13067763      10.00316996
18
Lattice="20.0 0.0 0.0 0.0 20.0 0.0 0.0 0.0 20.0" Properties=species:S:1:pos:R:3 MD=T iter:=T 10=T energy_eV=-402.1355 pbc="F F F"
C       13.91993873      12.00545070      10.99458636
C       13.05458774      13.28020200      10.94564871
C       11.53470992      13.36899631      10.94369474
C       10.77287337      12.05723817      11.02223034
C       11.55958013      10.72026424      11.04788185
C       13.10161256      10.68507619      10.94259441
H       14.64676043      12.10332785      11.83904803
H       14.57231048      11.99614648      10.08040990
H       13.39003208      13.81868822      10.01143253
H       13.39353907      13.96165999      11.77097543
H       11.15915501      14.02161726      10.12934332
H       11.18973680      13.89444069      11.86127589
H       10.00000000      12.00783180      10.21238349
H       10.18055441      12.05636799      11.92382778
H       11.15425455      10.15696747      10.20143530
H       11.25714816      10.14494792      11.92911094
H       13.50177235      10.00000000      11.73242221
H       13.38333209      10.15137295      10.00000000
18
Lattice="20.0 0.0 0.0 0.0 20.0 0.0 0.0 0.0 20.0" Properties=species:S:1:pos:R:3 MD=T iter:=T 11=T energy_eV=-402.2143 pbc="F F F"
C       13.92426790      12.01334197      11.00344138
C       13.05644786      13.29227615      10.94938771
C       11.52432303      13.38072043      10.95349218
C       10.76760430      12.06731384      11.03396700
C       11.55714569      10.73341987      11.06156323
C       13.10779116      10.69130799      10.95033438
H       14.64445818      12.09431872      11.84570978
H       14.57748977      12.01580751      10.10190125
H       13.38698587      13.82683174      10.02888973
H       13.40054418      13.97323670      11.76181874
H       11.16541803      14.03502127      10.13401185
H       11.21730332      13.93310934      11.86889369
H       10.00000000      12.01487689      10.23709064
H       10.16727767      12.08803343      11.96249062
H       11.15192222      10.14215023      10.22022399
H       11.25269192      10.15240363      11.95267157
H       13.49719199      10.00000000      11.72935627
H       13.36986424      10.17229270      10.00000000
18
Lattice="20.0 0.0 0.0 0.0 20.0 0.0 0.0 0.0 20.0" Properties=species:S:1:pos:R:3 MD=T iter:=T 12=T energy_eV=-402.2362 pbc="F F F"
C       13.92456805      12.01817005      11.00804646
C       13.05573352      13.30289959      10.94893368
C       11.51024366      13.38957338      10.96021175
C       10.75824369      12.07401865      11.04211814
C       11.55106993      10.74340732      11.07115649
C       13.11089888      10.69424290      10.95436977
H       14.63283069      12.07889153      11.84719856
H       14.57669635      12.03321243      10.12400427
H       13.37914177      13.83060992      10.04638607
H       13.40361886      13.97830060      11.74558634
H       11.17031490      14.04071325      10.13566328
H       11.24439399      13.96900579      11.86872323
H       10.00000000      12.01883722      10.25929637
H       10.15135393      12.11712040      11.99522654
H       11.14829293      10.12410560      10.23724054
H       11.24593483      10.15999460      11.97098109
H       13.48686517      10.00000000      11.72016611
H       13.35100101      10.19344297      10.00000000
18
Lattice="20.0 0.0 0.0 0.0 20.0 0.0 0.0 0.0 20.0" Properties=species:S:1:pos:R:3 MD=T iter:=T 13=T energy_eV=-402.1911 pbc="F F F"
C       13.92389045      12.02164927      11.01049068
C       13.05552654      13.31327979      10.94645331
C       11.49638033      13.39731169      10.96576203
C       10.74816321      12.07924756      11.04944150
C       11.54472930      10.75164631      11.07875535
C       13.11392714      10.69594531      10.95658156
H       14.61705689      12.06004628      11.84802311
H       14.57544427      12.04939943      10.14520818
H       13.37130744      13.83368083      10.06086561
H       13.40674700      13.98055983      11.72742865
H       11.17605181      14.04081252      10.13557729
H       11.27211811      14.00262394      11.86325769
H       10.00000000      12.02134411      10.27778253
H       10.13959814      12.14380579      12.01824997
H       11.14709243      10.10696930      10.25580538
H       11.24120705      10.17079232      11.98446241
H       13.47585725      10.00000000      11.70886879
H       13.33126932      10.21499632      10.00000000
18
Lattice="20.0 0.0 0.0 0.0 20.0 0.0 0.0 0.0 20.0" Properties=species:S:1:pos:R:3 MD=T iter:=T 14=T energy_eV=-402.1232 pbc="F F F"
C       13.92505980      12.02579148      11.01342788
C       13.05868024      13.32486018      10.94465347
C       11.48642291      13.40592589      10.97257952
C       10.74064767      12.08519122      11.05902867
C       11.54135675      10.75996973      11.08699677
C       13.11963689      10.69881750      10.95941330
H       14.60234362      12.04113143      11.85340477
H       14.57928353      12.06573870      10.16440002
H       13.36807203      13.84005568      10.06980519
H       13.41391927      13.98443191      11.71339532
H       11.18447371      14.03816862      10.13516999
H       11.30125258      14.03517237      11.85612565
H       10.00000000      12.02436121      10.29214568
H       10.13707742      12.16855440      12.03065182
H       11.15132604      10.09454035      10.27884551
H       11.24219337      10.18730804      11.99526057
H       13.46913010      10.00000000      11.70026157
H       13.31503923      10.23714187      10.00000000
18
Lattice="20.0 0.0 0.0 0.0 20.0 0.0 0.0 0.0 20.0" Properties=species:S:1:pos:R:3 MD=T iter:=T 15=T energy_eV=-402.0853 pbc="F F F"
C       13.92973694      12.03222814      11.01921041
C       13.06683869      13.33878029      10.94588892
C       11.48274153      13.41698233      10.98277882
C       10.73778730      12.09362182      11.07330925
C       11.54299083      10.76997407      11.09821565
C       13.12956098      10.70481455      10.96502720
H       14.59221142      12.02504933      11.86756455
H       14.59197608      12.08325609      10.18116812
H       13.37228327      13.85261200      10.07190540
H       13.42771763      13.99359563      11.70857146
H       11.19623734      14.03538451      10.13554498
H       11.33139140      14.06786460      11.85101640
H       10.00000000      12.02957156      10.30296260
H       10.14561748      12.19169768      12.03440370
H       11.16217904      10.08926084      10.30787012
H       11.25082366      10.21070366      12.00657485
H       13.47007207      10.00000000      11.69830452
H       13.30524188      10.25985937      10.00000000
18
Lattice="20.0 0.0 0.0 0.0 20.0 0.0 0.0 0.0 20.0" Properties=species:S:1:pos:R:3 MD=T iter:=T 16=T energy_eV=-402.0833 pbc="F F F"
C       13.93787813      12.04159713      11.02910898
C       13.07986313      13.35537628      10.95136949
C       11.48571873      13.43103633      10.99738274
C       10.73979404      12.10525140      11.09322110
C       11.54982688      10.78239712      11.11368266
C       13.14341446      10.71473866      10.97453281
H       14.58738308      12.01363336      11.89227021
H       14.61420112      12.10199782      10.19591436
H       13.38404539      13.87189457      10.06752891
H       13.44834531      14.00967362      11.71540894
H       11.21037460      14.03389651      10.13715455
H       11.36054501      14.10118064      11.85056277
H       10.00000000      12.03781250      10.31165838
H       10.16317781      12.21298346      12.03369298
H       11.17844979      10.09153378      10.34236185
H       11.26671816      10.24031175      12.02169487
H       13.47953835      10.00000000      11.70472152
H       13.30256757      10.28265533      10.00000000
18
Lattice="20.0 0.0 0.0 0.0 20.0 0.0 0.0 0.0 20.0" Properties=species:S:1:pos:R:3 MD=T iter:=T 17=T energy_eV=-402.0751 pbc="F F F"
C       13.94782214      12.05324237      11.04286176
C       13.09590946      13.37392647      10.96071738
C       11.49378471      13.44735500      11.01587432
C       10.74503634      12.11942081      11.11780555
C       11.56024180      10.79677319      11.13316309
C       13.15916870      10.72789532      10.98752817
H       14.58571533      12.00735413      11.92612164
H       14.64333025      12.12068697      10.20964202
H       13.40072952      13.89571624      10.05853897
H       13.47348619      14.03160160      11.73286004
H       11.22447217      14.03347105      10.13967686
H       11.38533986      14.13440261      11.85559228
H       10.00000000      12.04876943      10.32005771
H       10.18430411      12.23137243      12.03388206
H       11.19678709      10.09959437      10.37972435
H       11.28743054      10.27368887      12.04298597
H       13.49578425      10.00000000      11.71831338
H       13.30548334      10.30444987      10.00000000
18
Lattice="20.0 0.0 0.0 0.0 20.0 0.0 0.0 0.0 20.0" Properties=species:S:1:pos:R:3 MD=T iter:=T 18=T energy_eV=-402.0305 pbc="F F F"
C       13.95694205      12.06535148      11.05873707
C       13.11209595      13.39274995      10.97205831
C       11.50410490      13.46406611      11.03626182
C       10.75072668      12.13424997      11.14443166
C       11.57144645      10.81149953      11.15497966
C       13.17374119      10.74224970      11.00214403
H       14.58315297      12.00543646      11.96487950
H       14.67432201      12.13688006      10.22354869
H       13.41793302      13.91973531      10.04762218
H       13.49904656      14.05590094      11.75662944
H       11.23539869      14.03230020      10.14219014
H       11.40178817      14.16558076      11.86495730
H       10.00000000      12.06106691      10.32979699
H       10.20172866      12.24514304      12.04007859
H       11.21266906      10.11005741      10.41593320
H       11.30938343      10.30723023      12.07112796
H       13.51523282      10.00000000      11.73524303
H       13.31098674      10.32368601      10.00000000
18
Lattice="20.0 0.0 0.0 0.0 20.0 0.0 0.0 0.0 20.0" Properties=species:S:1:pos:R:3 MD=T iter:=T 19=T energy_eV=-401.9778 pbc="F F F"
C       13.96261088      12.07550322      11.07410033
C       13.12550778      13.40964914      10.98262529
C       11.51364924      13.47870160      11.05565473
C       10.75397061      12.14721830      11.16961786
C       11.58051141      10.82430395      11.17657170
C       13.18404070      10.75504617      11.01559365
H       14.57527486      12.00639432      12.00268394
H       14.70142657      12.14761299      10.23859619
H       13.43104003      13.93873677      10.03746015
H       13.52051600      14.07778335      11.78048282
H       11.24032636      14.02768868      10.14356053
H       11.40642883      14.19202219      11.87602591
H       10.00000000      12.07267909      10.34177219
H       10.20876594      12.25224917      12.05549993
H       11.22178942      10.11900923      10.44673265
H       11.32915275      10.33716909      12.10483183
H       13.53377949      10.00000000      11.75021835
H       13.31577530      10.33865948      10.00000000
18
Lattice="20.0 0.0 0.0 0.0 20.0 0.0 0.0 0.0 20.0" Properties=species:S:1:pos:R:3 MD=T iter:=T 20=T energy_eV=-401.9752 pbc="F F F"
C       13.96304068      12.08140206      11.08626759
C       13.13408274      13.42251720      10.98964377
C       11.52016354      13.48891738      11.07113736
C       10.75270409      12.15593389      11.19013197
C       11.58529995      10.83291801      11.19533487
C       13.18789848      10.76364017      11.02502273
H       14.55882824      12.00862631      12.03383135
H       14.71996566      12.15025265      10.25525848
H       13.43663071      13.94822181      10.02996213
H       13.53436160      14.09265317      11.79811658
H       11.23759672      14.01703928      10.14288813
H       11.39731458      14.21102242      11.88557048
H       10.00000000      12.08155046      10.35589348
H       10.20149787      12.25082048      12.08033362
H       11.22128757      10.12326716      10.46898716
H       11.34453695      10.36057663      12.14113138
H       13.54807909      10.00000000      11.75811057
H       13.31731348      10.34794215      10.00000000
18
Lattice="20.0 0.0 0.0 0.0 20.0 0.0 0.0 0.0 20.0" Properties=species:S:1:pos:R:3 MD=T iter:=T 21=T energy_eV=-402.0415 pbc="F F F"
C       13.95777792      12.08155099      11.09332313
C       13.13714813      13.42990572      10.99116688
C       11.52278275      13.49314591      11.08061200
C       10.74625490      12.15882679      11.20400006
C       11.58505891      10.83572947      11.20942125
C       13.18463696      10.76625906      11.02833978
H       14.53272708      12.01098130      12.05437101
H       14.72766805      12.14324944      10.27347224
H       13.43342148      13.94565377      10.02586965
H       13.53901102      14.09748486      11.80490038
H       11.22721472      13.99876701      10.13986176
H       11.37457858      14.22059783      11.89073469
H       10.00000000      12.08619677      10.37116122
H       10.18034370      12.23967828      12.11102411
H       11.21048889      10.12133999      10.48167181
H       11.35512163      10.37603083      12.17614065
H       13.55645414      10.00000000      11.75543531
H       13.31451064      10.35076284      10.00000000
18
Lattice="20.0 0.0 0.0 0.0 20.0 0.0 0.0 0.0 20.0" Properties=species:S:1:pos:R:3 MD=T iter:=T 22=T energy_eV=-402.1343 pbc="F F F"
C       13.94781642      12.07568410      11.09468999
C       13.13555880      13.43139912      10.98665030
C       11.52221970      13.49101231      11.08339166
C       10.73555799      12.15556726      11.21104232
C       11.58060333      10.83224415      11.21829018
C       13.17521928      10.76249311      11.02481120
H       14.49839118      12.01312562      12.06316418
H       14.72530027      12.12659358      10.29276777
H       13.42257595      13.93112618      10.02470555
H       13.53529361      14.09170212      11.79907666
H       11.21088742      13.97288609      10.13492199
H       11.34053847      14.22002642      11.88981847
H       10.00000000      12.08611934      10.38599422
H       10.14979390      12.21892188      12.14161278
H       11.19105358      10.11379965      10.48622848
H       11.36230043      10.38380079      12.20611058
H       13.55928678      10.00000000      11.74132773
H       13.30793646      10.34723425      10.00000000
18
Lattice="20.0 0.0 0.0 0.0 20.0 0.0 0.0 0.0 20.0" Properties=species:S:1:pos:R:3 MD=T iter:=T 23=T energy_eV=-402.191 pbc="F F F"
C       13.93534709      12.06487995      11.09136330
C       13.13145184      13.42772108      10.97717988
C       11.52053948      13.48344005      11.08044502
C       10.72297668      12.14715362      11.21294669
C       11.57410329      10.82326541      11.22292420
C       13.16199714      10.75342793      11.01532272
H       14.45944035      12.01564182      12.06225417
H       14.71654031      12.10189940      10.31250914
H       13.40740538      13.90740583      10.02496344
H       13.52629560      14.07741888      11.78223372
H       11.19167798      13.94117904      10.12922164
H       11.29936500      14.21009409      11.88273989
H       10.00000000      12.08195284      10.39872301
H       10.11705599      12.19023851      12.16580852
H       11.16654943      10.10300885      10.48626946
H       11.36881407      10.38558728      12.22855245
H       13.55887165      10.00000000      11.71786026
H       13.29961069      10.33838271      10.00000000
18
Lattice="20.0 0.0 0.0 0.0 20.0 0.0 0.0 0.0 20.0" Properties=species:S:1:pos:R:3 MD=T iter:=T 24=T energy_eV=-402.187 pbc="F F F"
C       13.92311526      12.05130763      11.08573921
C       13.12758933      13.42052813      10.96527878
C       11.52048760      13.47240085      11.07422277
C       10.71167051      12.13563733      11.21285415
C       11.56843318      10.81071733      11.22564996
C       13.14802785      10.74136748      11.00223268
H       14.42072681      12.01981873      12.05642324
H       14.70700500      12.07204836      10.33218373
H       13.39243947      13.87928784      10.02453088
H       13.51656337      14.05899029      11.75894613
H       11.17326327      13.90686002      10.12442337
H       11.25627280      14.19295914      11.87105789
H       10.00000000      12.07530407      10.40818676
H       10.08989252      12.15676360      12.17918753
H       11.14146502      10.09231143      10.48674172
H       11.37787337      10.38392812      12.24303126
H       13.55868839      10.00000000      11.68960676
H       13.29232341      10.32595039      10.00000000
18
Lattice="20.0 0.0 0.0 0.0 20.0 0.0 0.0 0.0 20.0" Properties=species:S:1:pos:R:3 MD=T iter:=T 25=T energy_eV=-402.1544 pbc="F F F"
C       13.91350630      12.03768515      11.08103692
C       13.12641118      13.41197175      10.95428673
C       11.52449433      13.46038699      11.06806162
C       10.70459350      12.12357813      11.21453868
C       11.56619683      10.79716628      11.22956475
C       13.13608441      10.72923007      10.98880768
H       14.38688996      12.02718153      12.05195731
H       14.70255729      12.04056176      10.35165915
H       13.38200626      13.85236912      10.02136258
H       13.51077506      14.04193908      11.73555594
H       11.15891367      13.87383501      10.12234470
H       11.21633917      14.17169705      11.85755366
H       10.00000000      12.06832173      10.41428190
H       10.07436466      12.12249822      12.18058128
H       11.11986352      10.08496968      10.49274780
H       11.39205048      10.38144511      12.25134464
H       13.56216143      10.00000000      11.66250977
H       13.28859475      10.31204424      10.00000000
18
Lattice="20.0 0.0 0.0 0.0 20.0 0.0 0.0 0.0 20.0" Properties=species:S:1:pos:R:3 MD=T iter:=T 26=T energy_eV=-402.1445 pbc="F F F"
C       13.90767568      12.02650157      11.08043826
C       13.12912136      13.40405967      10.94744481
C       11.53369187      13.44965558      11.06529173
C       10.70345943      12.11327917      11.22137096
C       11.56875677      10.78507712      11.23769034
C       13.12769161      10.71968294      10.97835742
H       14.36086651      12.03882505      12.05483469
H       14.70731224      12.01071688      10.37137739
H       13.37876720      13.83141803      10.01433817
H       13.51225505      14.03138889      11.71831166
H       11.15054179      13.84568124      10.12449009
H       11.18333470      14.14959282      11.84549177
H       10.00000000      12.06297714      10.41821465
H       10.07313125      12.09136338      12.17228227
H       11.10409841      10.08304912      10.50828322
H       11.41228576      10.38002038      12.25703457
H       13.57131442      10.00000000      11.64223906
H       13.28961607      10.29864508      10.00000000
18
Lattice="20.0 0.0 0.0 0.0 20.0 0.0 0.0 0.0 20.0" Properties=species:S:1:pos:R:3 MD=T iter:=T 27=T energy_eV=-402.1678 pbc="F F F"