18
Properties=species:S:1:pos:R:3 energy_eV=-355.7733 pbc="F F F"
C        1.26244863       0.28090729       0.28864509
C        0.52016961       1.62718613       0.63759448
C       -0.90148453       1.60131544       0.22361897
C       -1.73466396       0.36160350       0.68089513
C       -1.00740462      -0.84031441       0.01620313
C        0.40979027      -0.95958643       0.59477208
H        2.20355982       0.27404468       0.81038483
H        1.56589373       0.38851237      -0.74915670
H        1.13209495       2.44702392       0.24216888
H        0.55199359       1.87355819       1.69468808
H       -1.03538797       1.67768373      -0.83837842
H       -1.38272320       2.47992329       0.70496970
H       -2.70687363       0.66815657       0.31420593
H       -1.78242407       0.17144722       1.77080246
H       -1.07948286      -0.80075384      -1.08991261
H       -1.60642216      -1.77428426       0.25957042
H        0.36338919      -1.02910063       1.68260707
H        0.91704196      -1.84292443       0.24226097
