18
Lattice="80.0 0.0 0.0 0.0 80.0 0.0 0.0 0.0 80.0" Properties=species:S:1:pos:R:3:charge:R:1 BendBendEnergy=0.8112929134555721 BendBendTorsionEnergy=-0.7035909180194497 BendEnergy=9.607634070008526 ConstraintEnergy=0 Name=Cyclohexane:planar NonbondEnergy=6.076780128478261 OopOopEnergy=0 OutOfPlaneEnergy=0 RootMeanSquaredGradient=4.194016815433198e-07 StretchBendEnergy=-1.1463689298096145 StretchEnergy=0.32004563249686047 StretchStretchEnergy=0.02555000410305957 TorsionEnergy=16.90641574219044 TotalEnergy=31.897758642903657 TwistEnergy=0 energy_eV=-402.6296323743982 energy=-402.6296323743982 dipole="0.0 0.0 -0.0" pbc="F F F"
C        1.51380000       0.00000000       0.00000000      -0.15319815
C        0.75690000       1.31100000       0.00000000      -0.15320157
C       -0.75690000       1.31100000      -0.00000000      -0.15320157
C       -1.51380000      -0.00000000      -0.00000000      -0.15319815
C       -0.75690000      -1.31100000      -0.00000000      -0.15320157
C        0.75690000      -1.31100000       0.00000000      -0.15320157
H        2.18240000       0.00000000       0.88320000       0.07660118
H        2.18240000       0.00000000      -0.88320000       0.07660118
H        1.09120000       1.89000000      -0.88320000       0.07659974
H        1.09120000       1.89000000       0.88320000       0.07659974
H       -1.09120000       1.89000000      -0.88320000       0.07659974
H       -1.09120000       1.89000000       0.88320000       0.07659974
H       -2.18240000       0.00000000      -0.88320000       0.07660118
H       -2.18240000       0.00000000       0.88320000       0.07660118
H       -1.09120000      -1.89000000      -0.88320000       0.07659974
H       -1.09120000      -1.89000000       0.88320000       0.07659974
H        1.09120000      -1.89000000       0.88320000       0.07659974
H        1.09120000      -1.89000000      -0.88320000       0.07659974
