
     Program PWSCF v.6.7MaX starts on 28Oct2021 at 11:52:54 

     This program is part of the open-source Quantum ESPRESSO suite
     for quantum simulation of materials; please cite
         "P. Giannozzi et al., J. Phys.:Condens. Matter 21 395502 (2009);
         "P. Giannozzi et al., J. Phys.:Condens. Matter 29 465901 (2017);
          URL http://www.quantum-espresso.org", 
     in publications or presentations arising from this work. More details at
     http://www.quantum-espresso.org/quote

     Parallel version (MPI & OpenMP), running on       8 processor cores
     Number of MPI processes:                 1
     Threads/MPI process:                     8

     MPI processes distributed on     1 nodes
     Reading input from md.in
Warning: card &CELL ignored
Warning: card / ignored

     Current dimensions of program PWSCF are:
     Max number of different atomic species (ntypx) = 10
     Max number of k-points (npk) =  40000
     Max angular momentum in pseudopotentials (lmaxx) =  3

     -------------------------------------------------
     Parameters for Dispersion (Grimme-D2) Correction:
     -------------------------------------------------
       atom      VdW radius       C_6     

        H          1.892          4.857
        C          2.744         60.710

     gamma-point specific algorithms are used

     Subspace diagonalization in iterative solution of the eigenvalue problem:
     a serial algorithm will be used


     G-vector sticks info
     --------------------
     sticks:   dense  smooth     PW     G-vecs:    dense   smooth      PW
     Sum       15329   15329   3833              1429635  1429635  178925



     bravais-lattice index     =            0
     lattice parameter (alat)  =      28.3459  a.u.
     unit-cell volume          =   22775.6289 (a.u.)^3
     number of atoms/cell      =           18
     number of atomic types    =            2
     number of electrons       =        36.00
     number of Kohn-Sham states=           21
     kinetic-energy cutoff     =      60.0000  Ry
     charge density cutoff     =     240.0000  Ry
     scf convergence threshold =      1.0E-10
     mixing beta               =       0.5000
     number of iterations used =            8  plain     mixing
     Exchange-correlation=  SLA  PW   PBX  PBC
                           (   1   4   3   4   0   0   0)

     celldm(1)=  28.345892  celldm(2)=   0.000000  celldm(3)=   0.000000
     celldm(4)=   0.000000  celldm(5)=   0.000000  celldm(6)=   0.000000

     crystal axes: (cart. coord. in units of alat)
               a(1) = (   1.000000   0.000000   0.000000 )  
               a(2) = (   0.000000   1.000000   0.000000 )  
               a(3) = (   0.000000   0.000000   1.000000 )  

     reciprocal axes: (cart. coord. in units 2 pi/alat)
               b(1) = (  1.000000  0.000000  0.000000 )  
               b(2) = (  0.000000  1.000000  0.000000 )  
               b(3) = (  0.000000  0.000000  1.000000 )  


     PseudoPot. # 1 for H  read from file:
     /Users/rca/source_installs/espresso/pseudo/H.pbe-tm-new-gipaw-dc.UPF
     MD5 check sum: 0e5abdcbf773fd5bd1c97111569d22ab
     Pseudo is Norm-conserving, Zval =  1.0
     Generated by new atomic code, or converted to UPF format
     Using radial grid of 1261 points,  0 beta functions with: 

     PseudoPot. # 2 for C  read from file:
     /Users/rca/source_installs/espresso/pseudo/C.pbe-tm-new-gipaw-dc.UPF
     MD5 check sum: c9fa938d11269a3b0a4c160d8754c0f1
     Pseudo is Norm-conserving, Zval =  4.0
     Generated by new atomic code, or converted to UPF format
     Using radial grid of 1441 points,  1 beta functions with: 
                l(1) =   0

     atomic species   valence    mass     pseudopotential
        H              1.00     1.00790     H ( 1.00)
        C              4.00    12.01070     C ( 1.00)

     No symmetry found


                                    s                        frac. trans.

      isym =  1     identity                                     

 cryst.   s( 1) = (     1          0          0      )
                  (     0          1          0      )
                  (     0          0          1      )

 cart.    s( 1) = (  1.0000000  0.0000000  0.0000000 )
                  (  0.0000000  1.0000000  0.0000000 )
                  (  0.0000000  0.0000000  1.0000000 )


   Cartesian axes

     site n.     atom                  positions (alat units)
         1           C   tau(   1) = (   0.6009200   0.5000000   0.5000000  )
         2           C   tau(   2) = (   0.5504600   0.5874000   0.5000000  )
         3           C   tau(   3) = (   0.4495400   0.5874000   0.5000000  )
         4           C   tau(   4) = (   0.3990800   0.5000000   0.5000000  )
         5           C   tau(   5) = (   0.4495400   0.4126000   0.5000000  )
         6           C   tau(   6) = (   0.5504600   0.4126000   0.5000000  )
         7           H   tau(   7) = (   0.6454933   0.5000000   0.5588800  )
         8           H   tau(   8) = (   0.6454933   0.5000000   0.4411200  )
         9           H   tau(   9) = (   0.5727467   0.6260000   0.4411200  )
        10           H   tau(  10) = (   0.5727467   0.6260000   0.5588800  )
        11           H   tau(  11) = (   0.4272533   0.6260000   0.4411200  )
        12           H   tau(  12) = (   0.4272533   0.6260000   0.5588800  )
        13           H   tau(  13) = (   0.3545067   0.5000000   0.4411200  )
        14           H   tau(  14) = (   0.3545067   0.5000000   0.5588800  )
        15           H   tau(  15) = (   0.4272533   0.3740000   0.4411200  )
        16           H   tau(  16) = (   0.4272533   0.3740000   0.5588800  )
        17           H   tau(  17) = (   0.5727467   0.3740000   0.5588800  )
        18           H   tau(  18) = (   0.5727467   0.3740000   0.4411200  )

   Crystallographic axes

     site n.     atom                  positions (cryst. coord.)
         1           C   tau(   1) = (  0.6009200  0.5000000  0.5000000  )
         2           C   tau(   2) = (  0.5504600  0.5874000  0.5000000  )
         3           C   tau(   3) = (  0.4495400  0.5874000  0.5000000  )
         4           C   tau(   4) = (  0.3990800  0.5000000  0.5000000  )
         5           C   tau(   5) = (  0.4495400  0.4126000  0.5000000  )
         6           C   tau(   6) = (  0.5504600  0.4126000  0.5000000  )
         7           H   tau(   7) = (  0.6454933  0.5000000  0.5588800  )
         8           H   tau(   8) = (  0.6454933  0.5000000  0.4411200  )
         9           H   tau(   9) = (  0.5727467  0.6260000  0.4411200  )
        10           H   tau(  10) = (  0.5727467  0.6260000  0.5588800  )
        11           H   tau(  11) = (  0.4272533  0.6260000  0.4411200  )
        12           H   tau(  12) = (  0.4272533  0.6260000  0.5588800  )
        13           H   tau(  13) = (  0.3545067  0.5000000  0.4411200  )
        14           H   tau(  14) = (  0.3545067  0.5000000  0.5588800  )
        15           H   tau(  15) = (  0.4272533  0.3740000  0.4411200  )
        16           H   tau(  16) = (  0.4272533  0.3740000  0.5588800  )
        17           H   tau(  17) = (  0.5727467  0.3740000  0.5588800  )
        18           H   tau(  18) = (  0.5727467  0.3740000  0.4411200  )

     number of k points=     1
                       cart. coord. in units 2pi/alat
        k(    1) = (   0.0000000   0.0000000   0.0000000), wk =   2.0000000

                       cryst. coord.
        k(    1) = (   0.0000000   0.0000000   0.0000000), wk =   2.0000000

     Dense  grid:   714818 G-vectors     FFT dimensions: ( 144, 144, 144)

     Dynamical RAM for                 wfc:      28.64 MB

     Dynamical RAM for     wfc (w. buffer):      28.64 MB

     Dynamical RAM for           str. fact:      21.81 MB

     Dynamical RAM for           local pot:       0.00 MB

     Dynamical RAM for          nlocal pot:       8.18 MB

     Dynamical RAM for                qrad:       0.02 MB

     Dynamical RAM for          rho,v,vnew:     101.07 MB

     Dynamical RAM for               rhoin:      33.69 MB

     Dynamical RAM for            rho*nmix:     174.52 MB

     Dynamical RAM for           G-vectors:      46.36 MB

     Dynamical RAM for          h,s,v(r/c):       0.01 MB

     Dynamical RAM for          <psi|beta>:       0.00 MB

     Dynamical RAM for      wfcinit/wfcrot:     196.50 MB

     Estimated static dynamical RAM per process >     560.91 MB

     Estimated max dynamical RAM per process >     757.41 MB

     Initial potential from superposition of free atoms

     starting charge   29.99975, renormalised to   36.00000

     negative rho (up, down):  8.665E-04 0.000E+00
     Starting wfcs are   72 randomized atomic wfcs

     total cpu time spent up to now is        2.9 secs

     Self-consistent Calculation

     iteration #  1     ecut=    60.00 Ry     beta= 0.50
     CG style diagonalization
     ethr =  1.00E-02,  avg # of iterations =  3.0

     negative rho (up, down):  2.954E-04 0.000E+00

     total cpu time spent up to now is        6.6 secs

     total energy              =     -81.07794248 Ry
     estimated scf accuracy    <       4.98694434 Ry

     iteration #  2     ecut=    60.00 Ry     beta= 0.50
     CG style diagonalization
     ethr =  1.00E-02,  avg # of iterations =  4.0

     negative rho (up, down):  1.570E-04 0.000E+00

     total cpu time spent up to now is       10.5 secs

     total energy              =     -82.42579696 Ry
     estimated scf accuracy    <       0.88001298 Ry

     iteration #  3     ecut=    60.00 Ry     beta= 0.50
     CG style diagonalization
     ethr =  2.44E-03,  avg # of iterations =  3.7

     negative rho (up, down):  8.251E-06 0.000E+00

     total cpu time spent up to now is       14.0 secs

     total energy              =     -82.55176362 Ry
     estimated scf accuracy    <       0.05488625 Ry

     iteration #  4     ecut=    60.00 Ry     beta= 0.50
     CG style diagonalization
     ethr =  1.52E-04,  avg # of iterations =  3.9

     negative rho (up, down):  8.967E-06 0.000E+00

     total cpu time spent up to now is       17.7 secs

     total energy              =     -82.55895472 Ry
     estimated scf accuracy    <       0.00617291 Ry

     iteration #  5     ecut=    60.00 Ry     beta= 0.50
     CG style diagonalization
     ethr =  1.71E-05,  avg # of iterations =  4.1

     negative rho (up, down):  5.196E-08 0.000E+00

     total cpu time spent up to now is       21.7 secs

     total energy              =     -82.55991476 Ry
     estimated scf accuracy    <       0.00044018 Ry

     iteration #  6     ecut=    60.00 Ry     beta= 0.50
     CG style diagonalization
     ethr =  1.22E-06,  avg # of iterations =  4.2

     negative rho (up, down):  3.516E-07 0.000E+00

     total cpu time spent up to now is       25.7 secs

     total energy              =     -82.55998747 Ry
     estimated scf accuracy    <       0.00011263 Ry

     iteration #  7     ecut=    60.00 Ry     beta= 0.50
     CG style diagonalization
     ethr =  3.13E-07,  avg # of iterations =  3.8

     total cpu time spent up to now is       29.5 secs

     total energy              =     -82.56001356 Ry
     estimated scf accuracy    <       0.00000470 Ry

     iteration #  8     ecut=    60.00 Ry     beta= 0.50
     CG style diagonalization
     ethr =  1.31E-08,  avg # of iterations =  3.7

     total cpu time spent up to now is       33.1 secs

     total energy              =     -82.56001438 Ry
     estimated scf accuracy    <       0.00000009 Ry

     iteration #  9     ecut=    60.00 Ry     beta= 0.50
     CG style diagonalization
     ethr =  2.40E-10,  avg # of iterations =  4.0

     total cpu time spent up to now is       37.1 secs

     total energy              =     -82.56001440 Ry
     estimated scf accuracy    <       0.00000001 Ry

     iteration # 10     ecut=    60.00 Ry     beta= 0.50
     CG style diagonalization
     ethr =  2.82E-11,  avg # of iterations =  3.8

     total cpu time spent up to now is       40.5 secs

     End of self-consistent calculation

          k = 0.0000 0.0000 0.0000 ( 89463 PWs)   bands (ev):

   -20.0170 -18.0142 -18.0141 -14.6664 -14.6662 -11.6196 -11.4928 -11.1007
   -10.2176 -10.2175  -9.5721  -8.3650  -8.3649  -7.5159  -7.5158  -6.8855
    -6.8854  -5.9055  -0.6454   0.2251   0.2253

     occupation numbers 
     1.0000   1.0000   1.0000   1.0000   1.0000   1.0000   1.0000   1.0000
     1.0000   1.0000   1.0000   1.0000   1.0000   1.0000   1.0000   1.0000
     1.0000   1.0000   0.0000   0.0000   0.0000

     highest occupied, lowest unoccupied level (ev):    -5.9055   -0.6454

!    total energy              =     -82.56001440 Ry
     estimated scf accuracy    <          8.8E-11 Ry

     The total energy is the sum of the following terms:
     one-electron contribution =    -427.32790818 Ry
     hartree contribution      =     218.23100881 Ry
     xc contribution           =     -29.81258169 Ry
     ewald contribution        =     156.37704751 Ry
     Dispersion Correction     =      -0.02758083 Ry

     convergence has been achieved in  10 iterations

     Forces acting on atoms (cartesian axes, Ry/au):

     atom    1 type  2   force =     0.05324524    0.00000006   -0.00000000
     atom    2 type  2   force =     0.02677365    0.04604371    0.00000000
     atom    3 type  2   force =    -0.02677371    0.04604366   -0.00000001
     atom    4 type  2   force =    -0.05324526   -0.00000004    0.00000000
     atom    5 type  2   force =    -0.02677366   -0.04604370   -0.00000001
     atom    6 type  2   force =     0.02677370   -0.04604368   -0.00000002
     atom    7 type  1   force =    -0.00146912    0.00000000   -0.01139071
     atom    8 type  1   force =    -0.00146912   -0.00000000    0.01139072
     atom    9 type  1   force =    -0.00073455   -0.00125756    0.01137624
     atom   10 type  1   force =    -0.00073454   -0.00125756   -0.01137624
     atom   11 type  1   force =     0.00073453   -0.00125762    0.01137629
     atom   12 type  1   force =     0.00073452   -0.00125761   -0.01137629
     atom   13 type  1   force =     0.00146919   -0.00000000    0.01139082
     atom   14 type  1   force =     0.00146919   -0.00000000   -0.01139082
     atom   15 type  1   force =     0.00073452    0.00125762    0.01137630
     atom   16 type  1   force =     0.00073452    0.00125762   -0.01137630
     atom   17 type  1   force =    -0.00073454    0.00125755   -0.01137623
     atom   18 type  1   force =    -0.00073455    0.00125756    0.01137624
     The non-local contrib.  to forces
     atom    1 type  2   force =    -0.03081227    0.00000039    0.00000002
     atom    2 type  2   force =    -0.01511831   -0.02680922    0.00000004
     atom    3 type  2   force =     0.01511795   -0.02680961   -0.00000003
     atom    4 type  2   force =     0.03081239   -0.00000017    0.00000003
     atom    5 type  2   force =     0.01511830    0.02680942   -0.00000001
     atom    6 type  2   force =    -0.01511786    0.02680952   -0.00000004
     atom    7 type  1   force =     0.00000000    0.00000000    0.00000000
     atom    8 type  1   force =     0.00000000    0.00000000    0.00000000
     atom    9 type  1   force =     0.00000000    0.00000000    0.00000000
     atom   10 type  1   force =     0.00000000    0.00000000    0.00000000
     atom   11 type  1   force =     0.00000000    0.00000000    0.00000000
     atom   12 type  1   force =     0.00000000    0.00000000    0.00000000
     atom   13 type  1   force =     0.00000000    0.00000000    0.00000000
     atom   14 type  1   force =     0.00000000    0.00000000    0.00000000
     atom   15 type  1   force =     0.00000000    0.00000000    0.00000000
     atom   16 type  1   force =     0.00000000    0.00000000    0.00000000
     atom   17 type  1   force =     0.00000000    0.00000000    0.00000000
     atom   18 type  1   force =     0.00000000    0.00000000    0.00000000
     The ionic contribution  to forces
     atom    1 type  2   force =     6.10394665    0.00000000    0.00000000
     atom    2 type  2   force =     3.05642086    5.28877618    0.00000000
     atom    3 type  2   force =    -3.05642086    5.28877618    0.00000000
     atom    4 type  2   force =    -6.10394665    0.00000000    0.00000000
     atom    5 type  2   force =    -3.05642086   -5.28877618    0.00000000
     atom    6 type  2   force =     3.05642086   -5.28877618    0.00000000
     atom    7 type  1   force =     2.55469252    0.00000000    2.29494625
     atom    8 type  1   force =     2.55469252    0.00000000   -2.29494625
     atom    9 type  1   force =     1.28064693    2.21433905   -2.29494471
     atom   10 type  1   force =     1.28064693    2.21433905    2.29494471
     atom   11 type  1   force =    -1.28064693    2.21433905   -2.29494471
     atom   12 type  1   force =    -1.28064693    2.21433905    2.29494471
     atom   13 type  1   force =    -2.55469252    0.00000000   -2.29494625
     atom   14 type  1   force =    -2.55469252    0.00000000    2.29494625
     atom   15 type  1   force =    -1.28064693   -2.21433905   -2.29494471
     atom   16 type  1   force =    -1.28064693   -2.21433905    2.29494471
     atom   17 type  1   force =     1.28064693   -2.21433905    2.29494471
     atom   18 type  1   force =     1.28064693   -2.21433905   -2.29494471
     The local contribution  to forces
     atom    1 type  2   force =    -6.02089391   -0.00000028   -0.00000007
     atom    2 type  2   force =    -3.01503140   -5.21679335   -0.00000008
     atom    3 type  2   force =     3.01503142   -5.21679328   -0.00000005
     atom    4 type  2   force =     6.02089398    0.00000009   -0.00000007
     atom    5 type  2   force =     3.01503111    5.21679342   -0.00000006
     atom    6 type  2   force =    -3.01503181    5.21679308   -0.00000005
     atom    7 type  1   force =    -2.55576880    0.00000000   -2.30708983
     atom    8 type  1   force =    -2.55576881    0.00000000    2.30708982
     atom    9 type  1   force =    -1.28118499   -2.21525636    2.30707380
     atom   10 type  1   force =    -1.28118499   -2.21525635   -2.30707381
     atom   11 type  1   force =     1.28118500   -2.21525644    2.30707387
     atom   12 type  1   force =     1.28118499   -2.21525643   -2.30707388
     atom   13 type  1   force =     2.55576896   -0.00000000    2.30708998
     atom   14 type  1   force =     2.55576896   -0.00000001   -2.30708999
     atom   15 type  1   force =     1.28118500    2.21525645    2.30707389
     atom   16 type  1   force =     1.28118499    2.21525644   -2.30707389
     atom   17 type  1   force =    -1.28118498    2.21525634   -2.30707379
     atom   18 type  1   force =    -1.28118499    2.21525635    2.30707379
     The core correction contribution to forces
     atom    1 type  2   force =     0.00000000    0.00000000    0.00000000
     atom    2 type  2   force =     0.00000000    0.00000000    0.00000000
     atom    3 type  2   force =     0.00000000    0.00000000    0.00000000
     atom    4 type  2   force =     0.00000000    0.00000000    0.00000000
     atom    5 type  2   force =     0.00000000    0.00000000    0.00000000
     atom    6 type  2   force =     0.00000000    0.00000000    0.00000000
     atom    7 type  1   force =     0.00000000    0.00000000    0.00000000
     atom    8 type  1   force =     0.00000000    0.00000000    0.00000000
     atom    9 type  1   force =     0.00000000    0.00000000    0.00000000
     atom   10 type  1   force =     0.00000000    0.00000000    0.00000000
     atom   11 type  1   force =     0.00000000    0.00000000    0.00000000
     atom   12 type  1   force =     0.00000000    0.00000000    0.00000000
     atom   13 type  1   force =     0.00000000    0.00000000    0.00000000
     atom   14 type  1   force =     0.00000000    0.00000000    0.00000000
     atom   15 type  1   force =     0.00000000    0.00000000    0.00000000
     atom   16 type  1   force =     0.00000000    0.00000000    0.00000000
     atom   17 type  1   force =     0.00000000    0.00000000    0.00000000
     atom   18 type  1   force =     0.00000000    0.00000000    0.00000000
     The Hubbard contrib.    to forces
     atom    1 type  2   force =     0.00000000    0.00000000    0.00000000
     atom    2 type  2   force =     0.00000000    0.00000000    0.00000000
     atom    3 type  2   force =     0.00000000    0.00000000    0.00000000
     atom    4 type  2   force =     0.00000000    0.00000000    0.00000000
     atom    5 type  2   force =     0.00000000    0.00000000    0.00000000
     atom    6 type  2   force =     0.00000000    0.00000000    0.00000000
     atom    7 type  1   force =     0.00000000    0.00000000    0.00000000
     atom    8 type  1   force =     0.00000000    0.00000000    0.00000000
     atom    9 type  1   force =     0.00000000    0.00000000    0.00000000
     atom   10 type  1   force =     0.00000000    0.00000000    0.00000000
     atom   11 type  1   force =     0.00000000    0.00000000    0.00000000
     atom   12 type  1   force =     0.00000000    0.00000000    0.00000000
     atom   13 type  1   force =     0.00000000    0.00000000    0.00000000
     atom   14 type  1   force =     0.00000000    0.00000000    0.00000000
     atom   15 type  1   force =     0.00000000    0.00000000    0.00000000
     atom   16 type  1   force =     0.00000000    0.00000000    0.00000000
     atom   17 type  1   force =     0.00000000    0.00000000    0.00000000
     atom   18 type  1   force =     0.00000000    0.00000000    0.00000000
     The SCF correction term to forces
     atom    1 type  2   force =    -0.00000583   -0.00000005    0.00000004
     atom    2 type  2   force =    -0.00000270   -0.00000514    0.00000004
     atom    3 type  2   force =     0.00000301   -0.00000485    0.00000006
     atom    4 type  2   force =     0.00000565    0.00000003    0.00000003
     atom    5 type  2   force =     0.00000302    0.00000486    0.00000006
     atom    6 type  2   force =    -0.00000270    0.00000513    0.00000006
     atom    7 type  1   force =     0.00000005   -0.00000000    0.00000033
     atom    8 type  1   force =     0.00000006   -0.00000000   -0.00000033
     atom    9 type  1   force =     0.00000004    0.00000005   -0.00000034
     atom   10 type  1   force =     0.00000004    0.00000005    0.00000034
     atom   11 type  1   force =    -0.00000004    0.00000008   -0.00000037
     atom   12 type  1   force =    -0.00000004    0.00000008    0.00000037
     atom   13 type  1   force =    -0.00000011    0.00000000   -0.00000039
     atom   14 type  1   force =    -0.00000011    0.00000000    0.00000039
     atom   15 type  1   force =    -0.00000004   -0.00000008   -0.00000037
     atom   16 type  1   force =    -0.00000004   -0.00000008    0.00000037
     atom   17 type  1   force =     0.00000004   -0.00000004    0.00000034
     atom   18 type  1   force =     0.00000004   -0.00000005   -0.00000034

     Dispersion contribution to forces:
     atom    1 type  2   force =     0.00101061   -0.00000000   -0.00000000
     atom    2 type  2   force =     0.00050521    0.00087523   -0.00000000
     atom    3 type  2   force =    -0.00050521    0.00087523   -0.00000000
     atom    4 type  2   force =    -0.00101061   -0.00000000   -0.00000000
     atom    5 type  2   force =    -0.00050521   -0.00087523   -0.00000000
     atom    6 type  2   force =     0.00050521   -0.00087523   -0.00000000
     atom    7 type  1   force =    -0.00039288    0.00000000    0.00075254
     atom    8 type  1   force =    -0.00039288    0.00000000   -0.00075254
     atom    9 type  1   force =    -0.00019651   -0.00034031   -0.00075251
     atom   10 type  1   force =    -0.00019651   -0.00034031    0.00075251
     atom   11 type  1   force =     0.00019651   -0.00034031   -0.00075251
     atom   12 type  1   force =     0.00019651   -0.00034031    0.00075251
     atom   13 type  1   force =     0.00039288    0.00000000   -0.00075254
     atom   14 type  1   force =     0.00039288    0.00000000    0.00075254
     atom   15 type  1   force =     0.00019651    0.00034031   -0.00075251
     atom   16 type  1   force =     0.00019651    0.00034031    0.00075251
     atom   17 type  1   force =    -0.00019651    0.00034031    0.00075251
     atom   18 type  1   force =    -0.00019651    0.00034031   -0.00075251

     Total force =     0.136373     Total SCF correction =     0.000014

     Total Dispersion Force =     0.003844

     Writing output data file ./temp.save/

     init_run     :     12.54s CPU      2.69s WALL (       1 calls)
     electrons    :    220.67s CPU     37.69s WALL (       1 calls)
     forces       :      3.26s CPU      0.47s WALL (       1 calls)

     Called by init_run:
     wfcinit      :      9.34s CPU      1.91s WALL (       1 calls)
     wfcinit:atom :      0.16s CPU      0.06s WALL (       1 calls)
     wfcinit:wfcr :      8.75s CPU      1.59s WALL (       1 calls)
     potinit      :      2.57s CPU      0.43s WALL (       1 calls)
     hinit0       :      0.47s CPU      0.17s WALL (       1 calls)

     Called by electrons:
     c_bands      :    175.32s CPU     29.69s WALL (      10 calls)
     sum_band     :     15.67s CPU      2.65s WALL (      10 calls)
     v_of_rho     :     24.37s CPU      4.19s WALL (      11 calls)
     v_h          :      1.38s CPU      0.22s WALL (      11 calls)
     v_xc         :     22.99s CPU      3.97s WALL (      11 calls)
     mix_rho      :      6.28s CPU      1.27s WALL (      10 calls)

     Called by c_bands:
     init_us_2    :      0.32s CPU      0.05s WALL (      21 calls)
     rcgdiagg     :    151.40s CPU     25.60s WALL (      10 calls)
     wfcrot       :     32.50s CPU      5.66s WALL (      10 calls)

     Called by sum_band:
     sum_band:wei :      0.00s CPU      0.00s WALL (      10 calls)
     sum_band:loo :     13.28s CPU      2.27s WALL (      10 calls)
     sum_band:buf :      0.00s CPU      0.00s WALL (      10 calls)
     sum_band:ini :      0.16s CPU      0.02s WALL (      10 calls)

     Called by *cgdiagg:
     h_psi        :    171.43s CPU     29.11s WALL (     622 calls)

     Called by h_psi:
     h_psi:calbec :      1.66s CPU      0.29s WALL (     622 calls)
     vloc_psi     :    168.48s CPU     28.59s WALL (     622 calls)
     add_vuspsi   :      0.86s CPU      0.13s WALL (     622 calls)
     hs_1psi      :    140.69s CPU     23.74s WALL (     612 calls)
     s_1psi       :      0.95s CPU      0.19s WALL (     612 calls)

     General routines
     calbec       :      2.49s CPU      0.46s WALL (    1238 calls)
     fft          :      6.81s CPU      0.99s WALL (      89 calls)
     ffts         :      0.86s CPU      0.12s WALL (      10 calls)
     fftw         :    157.89s CPU     26.53s WALL (    1604 calls)

     Parallel routines

     PWSCF        :   3m56.87s CPU     41.10s WALL


   This run was terminated on:  11:53:35  28Oct2021            

=------------------------------------------------------------------------------=
   JOB DONE.
=------------------------------------------------------------------------------=
