18
Lattice="14.99999999685098 0.0 0.0 0.0 14.99999999685098 0.0 0.0 0.0 14.99999999685098" Properties=species:S:1:pos:R:3:forces_eV_per_au:R:3:forces:R:3 energy_eV=-1123.2861218924743 energy=-1123.2861218924743 free_energy=-1123.2861218924743 pbc="T T T"
C        9.01380000       7.50000000       7.50000000       1.36899005       0.00000154      -0.00000000       1.36899005       0.00000154      -0.00000000
C        8.25690000       8.81100000       7.50000000       0.68837816       1.18383128       0.00000000       0.68837816       1.18383128       0.00000000
C        6.74310000       8.81100000       7.50000000      -0.68837970       1.18383000      -0.00000026      -0.68837970       1.18383000      -0.00000026
C        5.98620000       7.50000000       7.50000000      -1.36899056      -0.00000103       0.00000000      -1.36899056      -0.00000103       0.00000000
C        6.74310000       6.18900000       7.50000000      -0.68837842      -1.18383103      -0.00000026      -0.68837842      -1.18383103      -0.00000026
C        8.25690000       6.18900000       7.50000000       0.68837945      -1.18383051      -0.00000051       0.68837945      -1.18383051      -0.00000051
H        9.68239950       7.50000000       8.38320000      -0.03777259       0.00000000      -0.29286690      -0.03777259       0.00000000      -0.29286690
H        9.68239950       7.50000000       6.61680000      -0.03777259      -0.00000000       0.29286716      -0.03777259      -0.00000000       0.29286716
H        8.59120050       9.39000000       6.61680000      -0.01888604      -0.03233316       0.29249487      -0.01888604      -0.03233316       0.29249487
H        8.59120050       9.39000000       8.38320000      -0.01888578      -0.03233316      -0.29249487      -0.01888578      -0.03233316      -0.29249487
H        6.40879950       9.39000000       6.61680000       0.01888552      -0.03233471       0.29249615       0.01888552      -0.03233471       0.29249615
H        6.40879950       9.39000000       8.38320000       0.01888527      -0.03233445      -0.29249615       0.01888527      -0.03233445      -0.29249615
H        5.31760050       7.50000000       6.61680000       0.03777439      -0.00000000       0.29286973       0.03777439      -0.00000000       0.29286973
H        5.31760050       7.50000000       8.38320000       0.03777439      -0.00000000      -0.29286973       0.03777439      -0.00000000      -0.29286973
H        6.40879950       5.61000000       6.61680000       0.01888527       0.03233471       0.29249641       0.01888527       0.03233471       0.29249641
H        6.40879950       5.61000000       8.38320000       0.01888527       0.03233471      -0.29249641       0.01888527       0.03233471      -0.29249641
H        8.59120050       5.61000000       8.38320000      -0.01888578       0.03233291      -0.29249461      -0.01888578       0.03233291      -0.29249461
H        8.59120050       5.61000000       6.61680000      -0.01888604       0.03233316       0.29249487      -0.01888604       0.03233316       0.29249487
18
Lattice="14.99999999685098 0.0 0.0 0.0 14.99999999685098 0.0 0.0 0.0 14.99999999685098" Properties=species:S:1:pos:R:3:forces_eV_per_au:R:3:forces:R:3 energy_eV=-1123.3815372494298 energy=-1123.3815372494298 free_energy=-1123.3815372494298 pbc="T T T"
C        9.04197617       7.50000003       7.50000000      -0.26523937      -0.00000103       0.00000026      -0.26523937      -0.00000103       0.00000026
C        8.27106800       8.83536528       7.50000000      -0.13001863      -0.22618406      -0.00000000      -0.13001863      -0.22618406      -0.00000000
C        6.72893196       8.83536525       7.49999999       0.13001966      -0.22618457       0.00000051       0.13001966      -0.22618457       0.00000051
C        5.95802382       7.49999998       7.50000000       0.26524194       0.00000051      -0.00000000       0.26524194       0.00000051      -0.00000000
C        6.72893199       6.16463472       7.50000000       0.13001940       0.22618509       0.00000026       0.13001940       0.22618509       0.00000026
C        8.27106803       6.16463473       7.49999999      -0.13001914       0.22618406       0.00000077      -0.13001914       0.22618406       0.00000077
H        9.68162258       7.50000000       8.37717229       0.40071774       0.00000000       0.19090132       0.40071774       0.00000000       0.19090132
H        9.68162257       7.50000000       6.62282771       0.40071800       0.00000026      -0.19090132       0.40071800       0.00000026      -0.19090132
H        8.59081129       9.38933453       6.62282005       0.20032905       0.34705548      -0.19123788       0.20032905       0.34705548      -0.19123788
H        8.59081130       9.38933453       8.37717995       0.20032905       0.34705548       0.19123788       0.20032905       0.34705548       0.19123788
H        6.40918869       9.38933450       6.62282008      -0.20032956       0.34705573      -0.19123891      -0.20032956       0.34705573      -0.19123891
H        6.40918869       9.38933450       8.37717993      -0.20032930       0.34705548       0.19123865      -0.20032930       0.34705548       0.19123865
H        5.31837746       7.50000000       6.62282776      -0.40071928      -0.00000000      -0.19090338      -0.40071928      -0.00000000      -0.19090338
H        5.31837746       7.50000000       8.37717224      -0.40071903      -0.00000000       0.19090312      -0.40071903      -0.00000000       0.19090312
H        6.40918869       5.61066550       6.62282008      -0.20032930      -0.34705599      -0.19123917      -0.20032930      -0.34705599      -0.19123917
H        6.40918869       5.61066550       8.37717992      -0.20032930      -0.34705599       0.19123891      -0.20032930      -0.34705599       0.19123891
H        8.59081130       5.61066547       8.37717996       0.20032905      -0.34705496       0.19123762       0.20032905      -0.34705496       0.19123762
H        8.59081129       5.61066547       6.62282005       0.20032930      -0.34705522      -0.19123814       0.20032930      -0.34705522      -0.19123814
18
Lattice="14.99999999685098 0.0 0.0 0.0 14.99999999685098 0.0 0.0 0.0 14.99999999685098" Properties=species:S:1:pos:R:3:forces_eV_per_au:R:3:forces:R:3 energy_eV=-1123.4115250107911 energy=-1123.4115250107911 free_energy=-1123.4115250107911 pbc="T T T"
C        9.04061234       7.50000002       7.50000000       0.03807444      -0.00000051      -0.00000000       0.03807444      -0.00000051      -0.00000000
C        8.27043767       8.83423851       7.50000000       0.01847132       0.03437436       0.00000000       0.01847132       0.03437436       0.00000000
C        6.72956231       8.83423848       7.50000000      -0.01847055       0.03437539      -0.00000000      -0.01847055       0.03437539      -0.00000000
C        5.95938770       7.49999999       7.50000000      -0.03807495       0.00000026       0.00000000      -0.03807495       0.00000026       0.00000000
C        6.72956233       6.16576151       7.50000000      -0.01847081      -0.03437514      -0.00000000      -0.01847081      -0.03437514      -0.00000000
C        8.27043769       6.16576150       7.50000000       0.01847081      -0.03437488      -0.00000026       0.01847081      -0.03437488      -0.00000026
H        9.68816583       7.50000000       8.37968263       0.25379719       0.00000000       0.03526474       0.25379719       0.00000000       0.03526474
H        9.68816582       7.50000000       6.62031737       0.25379719       0.00000000      -0.03526474       0.25379719       0.00000000      -0.03526474
H        8.59408242       9.39500237       6.62030332       0.12733028       0.22046078      -0.03631426       0.12733028       0.22046078      -0.03631426
H        8.59408243       9.39500237       8.37969668       0.12733028       0.22046078       0.03631426       0.12733028       0.22046078       0.03631426
H        6.40591755       9.39500235       6.62030333      -0.12733028       0.22046078      -0.03631452      -0.12733028       0.22046078      -0.03631452
H        6.40591755       9.39500235       8.37969666      -0.12733028       0.22046078       0.03631452      -0.12733028       0.22046078       0.03631452
H        5.31183419       7.50000000       6.62031740      -0.25379745      -0.00000000      -0.03526525      -0.25379745      -0.00000000      -0.03526525
H        5.31183419       7.50000000       8.37968260      -0.25379745      -0.00000000       0.03526499      -0.25379745      -0.00000000       0.03526499
H        6.40591756       5.60499765       6.62030334      -0.12733028      -0.22046078      -0.03631452      -0.12733028      -0.22046078      -0.03631452
H        6.40591756       5.60499765       8.37969666      -0.12733028      -0.22046078       0.03631452      -0.12733028      -0.22046078       0.03631452
H        8.59408243       5.60499763       8.37969668       0.12733028      -0.22046053       0.03631426       0.12733028      -0.22046053       0.03631426
H        8.59408243       5.60499763       6.62030332       0.12733028      -0.22046053      -0.03631400       0.12733028      -0.22046053      -0.03631400
18
Lattice="14.99999999685098 0.0 0.0 0.0 14.99999999685098 0.0 0.0 0.0 14.99999999685098" Properties=species:S:1:pos:R:3:forces_eV_per_au:R:3:forces:R:3 energy_eV=-1123.431977767189 energy=-1123.431977767189 free_energy=-1123.431977767189 pbc="T T T"
C        9.04342703       7.50000001       7.50000000       0.11959641      -0.00000000      -0.00000000       0.11959641      -0.00000000      -0.00000000
C        8.27185696       8.83672149       7.50000000       0.05833345       0.10374170      -0.00000000       0.05833345       0.10374170      -0.00000000
C        6.72814303       8.83672147       7.50000000      -0.05833345       0.10374221      -0.00000000      -0.05833345       0.10374221      -0.00000000
C        5.95657300       7.49999999       7.50000000      -0.11959718       0.00000000      -0.00000000      -0.11959718       0.00000000      -0.00000000
C        6.72814305       6.16327853       7.50000000      -0.05833370      -0.10374221      -0.00000000      -0.05833370      -0.10374221      -0.00000000
C        8.27185698       6.16327852       7.50000000       0.05833345      -0.10374196      -0.00000000       0.05833345      -0.10374196      -0.00000000
H        9.69578069       7.50000001       8.38076225       0.16357384       0.00000000      -0.04218589       0.16357384       0.00000000      -0.04218589
H        9.69578069       7.50000001       6.61923775       0.16357384       0.00000000       0.04218589       0.16357384       0.00000000       0.04218589
H        8.59789904       9.40161254       6.61919819       0.08224162       0.14234578       0.04147241       0.08224162       0.14234578       0.04147241
H        8.59789904       9.40161254       8.38080182       0.08224162       0.14234578      -0.04147241       0.08224162       0.14234578      -0.04147241
H        6.40210094       9.40161252       6.61919819      -0.08224162       0.14234578       0.04147241      -0.08224162       0.14234578       0.04147241
H        6.40210093       9.40161252       8.38080180      -0.08224162       0.14234578      -0.04147241      -0.08224162       0.14234578      -0.04147241
H        5.30421932       7.50000000       6.61923777      -0.16357384      -0.00000000       0.04218589      -0.16357384      -0.00000000       0.04218589
H        5.30421932       7.49999999       8.38076223      -0.16357384      -0.00000000      -0.04218589      -0.16357384      -0.00000000      -0.04218589
H        6.40210094       5.59838748       6.61919819      -0.08224136      -0.14234578       0.04147241      -0.08224136      -0.14234578       0.04147241
H        6.40210094       5.59838748       8.38080181      -0.08224162      -0.14234578      -0.04147241      -0.08224162      -0.14234578      -0.04147241
H        8.59789905       5.59838746       8.38080181       0.08224188      -0.14234578      -0.04147241       0.08224188      -0.14234578      -0.04147241
H        8.59789904       5.59838746       6.61919818       0.08224162      -0.14234578       0.04147241       0.08224162      -0.14234578       0.04147241
18
Lattice="14.99999999685098 0.0 0.0 0.0 14.99999999685098 0.0 0.0 0.0 14.99999999685098" Properties=species:S:1:pos:R:3:forces_eV_per_au:R:3:forces:R:3 energy_eV=-1123.4524279385057 energy=-1123.4524279385057 free_energy=-1123.4524279385057 pbc="T T T"
C        9.04938609       7.50000000       7.50000000       0.12215157       0.00000026      -0.00000000       0.12215157       0.00000026      -0.00000000
C        8.27483145       8.84193065       7.50000000       0.05825168       0.10338714       0.00000000       0.05825168       0.10338714       0.00000000
C        6.72516856       8.84193064       7.50000000      -0.05825194       0.10338740      -0.00000026      -0.05825194       0.10338740      -0.00000026
C        5.95061394       7.50000000       7.50000000      -0.12215285      -0.00000000       0.00000000      -0.12215285      -0.00000000       0.00000000
C        6.72516856       6.15806936       7.50000000      -0.05825220      -0.10338766      -0.00000000      -0.05825220      -0.10338766      -0.00000000
C        8.27483146       6.15806935       7.50000000       0.05825168      -0.10338714      -0.00000051       0.05825168      -0.10338714      -0.00000051
H        9.70731705       7.50000001       8.38072297       0.06863740      -0.00000000      -0.09702186       0.06863740      -0.00000000      -0.09702186
H        9.70731705       7.50000001       6.61927703       0.06863740      -0.00000000       0.09702186       0.06863740      -0.00000000       0.09702186
H        8.60368399       9.41163099       6.61920427       0.03459368       0.05986762       0.09708820       0.03459368       0.05986762       0.09708820
H        8.60368399       9.41163099       8.38079573       0.03459368       0.05986762      -0.09708820       0.03459368       0.05986762      -0.09708820
H        6.39631598       9.41163097       6.61920427      -0.03459342       0.05986762       0.09708845      -0.03459342       0.05986762       0.09708845
H        6.39631598       9.41163097       8.38079573      -0.03459368       0.05986762      -0.09708820      -0.03459368       0.05986762      -0.09708820
H        5.29268295       7.49999999       6.61927703      -0.06863688       0.00000000       0.09702238      -0.06863688       0.00000000       0.09702238
H        5.29268295       7.49999999       8.38072297      -0.06863688       0.00000000      -0.09702238      -0.06863688       0.00000000      -0.09702238
H        6.39631599       5.58836902       6.61920427      -0.03459342      -0.05986737       0.09708845      -0.03459342      -0.05986737       0.09708845
H        6.39631599       5.58836902       8.38079573      -0.03459342      -0.05986762      -0.09708845      -0.03459342      -0.05986762      -0.09708845
H        8.60368400       5.58836901       8.38079573       0.03459368      -0.05986762      -0.09708794       0.03459368      -0.05986762      -0.09708794
H        8.60368400       5.58836901       6.61920427       0.03459368      -0.05986762       0.09708845       0.03459368      -0.05986762       0.09708845
18
Lattice="14.99999999685098 0.0 0.0 0.0 14.99999999685098 0.0 0.0 0.0 14.99999999685098" Properties=species:S:1:pos:R:3:forces_eV_per_au:R:3:forces:R:3 energy_eV=-1123.4636135860142 energy=-1123.4636135860142 free_energy=-1123.4636135860142 pbc="T T T"
C        9.05699602       7.50000000       7.50000000       0.04889235       0.00000026      -0.00000000       0.04889235       0.00000026      -0.00000000
C        8.27855990       8.84848521       7.50000000       0.02350785       0.04040334      -0.00000000       0.02350785       0.04040334      -0.00000000
C        6.72144011       8.84848521       7.50000000      -0.02350862       0.04040309       0.00000026      -0.02350862       0.04040309       0.00000026
C        5.94300400       7.50000000       7.50000000      -0.04889287      -0.00000026      -0.00000000      -0.04889287      -0.00000026      -0.00000000
C        6.72144011       6.15151479       7.50000000      -0.02350837      -0.04040334      -0.00000000      -0.02350837      -0.04040334      -0.00000000
C        8.27855990       6.15151479       7.50000000       0.02350811      -0.04040309       0.00000000       0.02350811      -0.04040309       0.00000000
H        9.72077064       7.50000001       8.37849675      -0.00932642      -0.00000000      -0.10098265      -0.00932642      -0.00000000      -0.10098265
H        9.72077064       7.50000001       6.62150325      -0.00932642      -0.00000000       0.10098265      -0.00932642      -0.00000000       0.10098265
H        8.61042955       9.42331385       6.62141270      -0.00522782      -0.00887005       0.10272508      -0.00522782      -0.00887005       0.10272508
H        8.61042955       9.42331385       8.37858730      -0.00522782      -0.00886979      -0.10272483      -0.00522782      -0.00886979      -0.10272483
H        6.38957042       9.42331382       6.62141269       0.00522808      -0.00886979       0.10272508       0.00522808      -0.00886979       0.10272508
H        6.38957042       9.42331383       8.37858731       0.00522808      -0.00886979      -0.10272508       0.00522808      -0.00886979      -0.10272508
H        5.27922937       7.49999999       6.62150324       0.00932668       0.00000000       0.10098290       0.00932668       0.00000000       0.10098290
H        5.27922937       7.49999999       8.37849676       0.00932668       0.00000000      -0.10098290       0.00932668       0.00000000      -0.10098290
H        6.38957044       5.57668617       6.62141269       0.00522808       0.00887005       0.10272508       0.00522808       0.00887005       0.10272508
H        6.38957044       5.57668617       8.37858731       0.00522808       0.00886979      -0.10272508       0.00522808       0.00886979      -0.10272508
H        8.61042957       5.57668616       8.37858730      -0.00522808       0.00886979      -0.10272483      -0.00522808       0.00886979      -0.10272483
H        8.61042956       5.57668617       6.62141270      -0.00522808       0.00886979       0.10272483      -0.00522808       0.00886979       0.10272483
18
Lattice="14.99999999685098 0.0 0.0 0.0 14.99999999685098 0.0 0.0 0.0 14.99999999685098" Properties=species:S:1:pos:R:3:forces_eV_per_au:R:3:forces:R:3 energy_eV=-1123.465631038014 energy=-1123.465631038014 free_energy=-1123.465631038014 pbc="T T T"
C        9.05847865       7.50000000       7.50000000       0.00417881       0.00000026       0.00000000       0.00417881       0.00000026       0.00000000
C        8.27927903       8.84972973       7.50000000       0.00137503       0.00190185       0.00000000       0.00137503       0.00190185       0.00000000
C        6.72072098       8.84972973       7.50000000      -0.00137528       0.00190185      -0.00000026      -0.00137528       0.00190185      -0.00000026
C        5.94152136       7.50000000       7.50000000      -0.00417907      -0.00000000       0.00000000      -0.00417907      -0.00000000       0.00000000
C        6.72072098       6.15027027       7.50000000      -0.00137528      -0.00190185      -0.00000000      -0.00137528      -0.00190185      -0.00000000
C        8.27927903       6.15027027       7.50000000       0.00137528      -0.00190159      -0.00000026       0.00137528      -0.00190159      -0.00000026
H        9.72369228       7.50000001       8.37637243      -0.01084723      -0.00000000      -0.06532736      -0.01084723      -0.00000000      -0.06532736
H        9.72369228       7.50000001       6.62362757      -0.01084723      -0.00000000       0.06532736      -0.01084723      -0.00000000       0.06532736
H        8.61187864       9.42582858       6.62357641      -0.00593179      -0.01007410       0.06648050      -0.00593179      -0.01007410       0.06648050
H        8.61187864       9.42582858       8.37642360      -0.00593179      -0.01007410      -0.06648076      -0.00593179      -0.01007410      -0.06648076
H        6.38812134       9.42582856       6.62357640       0.00593205      -0.01007410       0.06648076       0.00593205      -0.01007410       0.06648076
H        6.38812133       9.42582856       8.37642360       0.00593205      -0.01007384      -0.06648050       0.00593205      -0.01007384      -0.06648050
H        5.27630773       7.49999999       6.62362756       0.01084723       0.00000000       0.06532762       0.01084723       0.00000000       0.06532762
H        5.27630773       7.49999999       8.37637244       0.01084723       0.00000000      -0.06532762       0.01084723       0.00000000      -0.06532762
H        6.38812135       5.57417143       6.62357640       0.00593205       0.01007410       0.06648076       0.00593205       0.01007410       0.06648076
H        6.38812135       5.57417143       8.37642360       0.00593179       0.01007410      -0.06648076       0.00593179       0.01007410      -0.06648076
H        8.61187866       5.57417143       8.37642359      -0.00593179       0.01007384      -0.06648050      -0.00593179       0.01007384      -0.06648050
H        8.61187865       5.57417143       6.62357640      -0.00593179       0.01007410       0.06648076      -0.00593179       0.01007410       0.06648076
18
Lattice="14.99999999685098 0.0 0.0 0.0 14.99999999685098 0.0 0.0 0.0 14.99999999685098" Properties=species:S:1:pos:R:3:forces_eV_per_au:R:3:forces:R:3 energy_eV=-1123.4669215378938 energy=-1123.4669215378938 free_energy=-1123.4669215378938 pbc="T T T"
C        9.05851885       7.50000001       7.50000000      -0.02854542      -0.00000000      -0.00000000      -0.02854542      -0.00000000      -0.00000000
C        8.27926543       8.84968677       7.50000000      -0.01411638      -0.02581902      -0.00000026      -0.01411638      -0.02581902      -0.00000026
C        6.72073456       8.84968677       7.50000000       0.01411638      -0.02581902       0.00000026       0.01411638      -0.02581902       0.00000026
C        5.94148115       7.49999999       7.50000000       0.02854567      -0.00000000      -0.00000026       0.02854567      -0.00000000      -0.00000026
C        6.72073457       6.15031323       7.50000000       0.01411638       0.02581902      -0.00000000       0.01411638       0.02581902      -0.00000000
C        8.27926544       6.15031323       7.49999999      -0.01411638       0.02581902       0.00000026      -0.01411638       0.02581902       0.00000026
H        9.72517119       7.50000001       8.37337793      -0.00000000      -0.00000000      -0.01021396      -0.00000000      -0.00000000      -0.01021396
H        9.72517119       7.50000001       6.62662207      -0.00000000       0.00000000       0.01021396      -0.00000000       0.00000000       0.01021396
H        8.61259352       9.42707669       6.62663060      -0.00043272      -0.00056076       0.01051555      -0.00043272      -0.00056076       0.01051555
H        8.61259352       9.42707669       8.37336940      -0.00043272      -0.00056050      -0.01051530      -0.00043272      -0.00056050      -0.01051530
H        6.38740646       9.42707667       6.62663060       0.00043272      -0.00056050       0.01051530       0.00043272      -0.00056050       0.01051530
H        6.38740646       9.42707667       8.37336941       0.00043272      -0.00056050      -0.01051555       0.00043272      -0.00056050      -0.01051555
H        5.27482882       7.49999999       6.62662207      -0.00000000      -0.00000000       0.01021396      -0.00000000      -0.00000000       0.01021396
H        5.27482882       7.49999999       8.37337794      -0.00000026       0.00000000      -0.01021396      -0.00000026       0.00000000      -0.01021396
H        6.38740648       5.57292332       6.62663060       0.00043272       0.00056050       0.01051530       0.00043272       0.00056050       0.01051530
H        6.38740648       5.57292332       8.37336940       0.00043272       0.00056050      -0.01051530       0.00043272       0.00056050      -0.01051530
H        8.61259353       5.57292332       8.37336940      -0.00043272       0.00056076      -0.01051555      -0.00043272       0.00056076      -0.01051555
H        8.61259353       5.57292332       6.62663060      -0.00043272       0.00056050       0.01051530      -0.00043272       0.00056050       0.01051530
18
Lattice="14.99999999685098 0.0 0.0 0.0 14.99999999685098 0.0 0.0 0.0 14.99999999685098" Properties=species:S:1:pos:R:3:forces_eV_per_au:R:3:forces:R:3 energy_eV=-1123.4670671187976 energy=-1123.4670671187976 free_energy=-1123.4670671187976 pbc="T T T"
C        9.05774116       7.50000001       7.50000000      -0.01584160      -0.00000000       0.00000000      -0.01584160      -0.00000000       0.00000000
C        8.27887530       8.84897515       7.50000000      -0.00798559      -0.01461338       0.00000026      -0.00798559      -0.01461338       0.00000026
C        6.72112469       8.84897514       7.50000000       0.00798559      -0.01461338      -0.00000026       0.00798559      -0.01461338      -0.00000026
C        5.94225885       7.49999999       7.50000000       0.01584185       0.00000000       0.00000026       0.01584185       0.00000000       0.00000026
C        6.72112470       6.15102485       7.50000000       0.00798559       0.01461338       0.00000000       0.00798559       0.01461338       0.00000000
C        8.27887531       6.15102486       7.50000000      -0.00798559       0.01461338      -0.00000026      -0.00798559       0.01461338      -0.00000026
H        9.72483825       7.50000001       8.37266694       0.00264669       0.00000000       0.00115314       0.00264669       0.00000000       0.00115314
H        9.72483825       7.50000001       6.62733306       0.00264669       0.00000000      -0.00115314       0.00264669       0.00000000      -0.00115314
H        8.61241295       9.42676968       6.62735783       0.00093691       0.00174475      -0.00110223       0.00093691       0.00174475      -0.00110223
H        8.61241295       9.42676968       8.37264218       0.00093691       0.00174449       0.00110223       0.00093691       0.00174449       0.00110223
H        6.38758703       9.42676966       6.62735782      -0.00093691       0.00174449      -0.00110197      -0.00093691       0.00174449      -0.00110197
H        6.38758703       9.42676967       8.37264218      -0.00093691       0.00174475       0.00110223      -0.00093691       0.00174475       0.00110223
H        5.27516176       7.49999999       6.62733306      -0.00264669       0.00000000      -0.00115340      -0.00264669       0.00000000      -0.00115340
H        5.27516176       7.49999999       8.37266695      -0.00264669      -0.00000000       0.00115314      -0.00264669      -0.00000000       0.00115314
H        6.38758704       5.57323033       6.62735782      -0.00093691      -0.00174475      -0.00110223      -0.00093691      -0.00174475      -0.00110223
H        6.38758704       5.57323033       8.37264218      -0.00093691      -0.00174475       0.00110223      -0.00093691      -0.00174475       0.00110223
H        8.61241297       5.57323033       8.37264217       0.00093691      -0.00174475       0.00110223       0.00093691      -0.00174475       0.00110223
H        8.61241297       5.57323033       6.62735782       0.00093691      -0.00174449      -0.00110223       0.00093691      -0.00174449      -0.00110223
18
Lattice="14.99999999685098 0.0 0.0 0.0 14.99999999685098 0.0 0.0 0.0 14.99999999685098" Properties=species:S:1:pos:R:3:forces_eV_per_au:R:3:forces:R:3 energy_eV=-1123.4670876633925 energy=-1123.4670876633925 free_energy=-1123.4670876633925 pbc="T T T"
C        9.05730062       7.50000001       7.50000000      -0.00278528      -0.00000000      -0.00000000      -0.00278528      -0.00000000      -0.00000000
C        8.27865175       8.84856433       7.50000000      -0.00143570      -0.00296037      -0.00000026      -0.00143570      -0.00296037      -0.00000026
C        6.72134824       8.84856433       7.50000000       0.00143570      -0.00296037       0.00000026       0.00143570      -0.00296037       0.00000026
C        5.94269938       7.49999999       7.50000000       0.00278528       0.00000000      -0.00000026       0.00278528       0.00000000      -0.00000026
C        6.72134825       6.15143567       7.50000000       0.00143570       0.00296037      -0.00000000       0.00143570       0.00296037      -0.00000000
C        8.27865176       6.15143567       7.50000000      -0.00143570       0.00296037       0.00000026      -0.00143570       0.00296037       0.00000026
H        9.72462143       7.50000001       8.37254377       0.00152235      -0.00000000       0.00127141       0.00152235      -0.00000000       0.00127141
H        9.72462143       7.50000001       6.62745623       0.00152235       0.00000000      -0.00127141       0.00152235       0.00000000      -0.00127141
H        8.61229260       9.42656498       6.62748441       0.00037230       0.00072814      -0.00121922       0.00037230       0.00072814      -0.00121922
H        8.61229260       9.42656498       8.37251559       0.00037230       0.00072814       0.00121947       0.00037230       0.00072814       0.00121947
H        6.38770739       9.42656497       6.62748441      -0.00037230       0.00072814      -0.00121947      -0.00037230       0.00072814      -0.00121947
H        6.38770738       9.42656497       8.37251559      -0.00037230       0.00072814       0.00121922      -0.00037230       0.00072814       0.00121922
H        5.27537858       7.49999999       6.62745622      -0.00152235      -0.00000000      -0.00127141      -0.00152235      -0.00000000      -0.00127141
H        5.27537858       7.49999999       8.37254378      -0.00152235       0.00000000       0.00127141      -0.00152235       0.00000000       0.00127141