18
Lattice="80.0 0.0 0.0 0.0 80.0 0.0 0.0 0.0 80.0" Properties=species:S:1:pos:R:3:charge:R:1 BendBendEnergy=0.021115091314566126 BendBendTorsionEnergy=-0.01601366960641068 BendEnergy=0.5124813447150636 ConstraintEnergy=0 Name=Cyclohexane:boat NonbondEnergy=5.486967776670681 OopOopEnergy=0 OutOfPlaneEnergy=0 RootMeanSquaredGradient=1.455183566968134e-07 StretchBendEnergy=0.14076518162896137 StretchEnergy=0.09918496375002278 StretchStretchEnergy=0.006834394057556212 TorsionEnergy=6.192218490635092 TotalEnergy=12.443553573165532 TwistEnergy=0 energy_eV=-403.2169428565087 energy=-403.2169428565087 dipole="-0.0 -0.0 -0.0018976506441703569" pbc="F F F"
C        1.36180000      -0.00000000      -0.40950000      -0.14875422
C        0.76710000       1.26450000       0.21730000      -0.15673083
C       -0.76710000       1.26450000       0.21730000      -0.15673083
C       -1.36180000       0.00000000      -0.40950000      -0.14875422
C       -0.76710000      -1.26450000       0.21730000      -0.15673083
C        0.76710000      -1.26450000       0.21730000      -0.15673083
H        2.45780000      -0.00000000      -0.25400000       0.07738461
H        1.16650000       0.00000000      -1.49910000       0.07582968
H        1.13490000       2.14700000      -0.34070000       0.07791631
H        1.12210000       1.34430000       1.26300000       0.07658449
H       -1.13490000       2.14700000      -0.34070000       0.07791631
H       -1.12210000       1.34430000       1.26300000       0.07658449
H       -1.16650000       0.00000000      -1.49910000       0.07582968
H       -2.45780000       0.00000000      -0.25400000       0.07738461
H       -1.13490000      -2.14700000      -0.34070000       0.07791631
H       -1.12210000      -1.34430000       1.26300000       0.07658449
H        1.12210000      -1.34430000       1.26300000       0.07658449
H        1.13490000      -2.14700000      -0.34070000       0.07791631
