18
Lattice="14.99999999685098 0.0 0.0 0.0 14.99999999685098 0.0 0.0 0.0 14.99999999685098" Properties=species:S:1:pos:R:3:forces_eV_per_au:R:3:forces:R:3 energy_eV=-1124.2643432507728 energy=-1124.2643432507728 free_energy=-1124.2643432507728 pbc="T T T"
C        8.85611343       7.49564123       7.06866976       0.00047000       0.00005425      -0.00000591       0.00047000       0.00005425      -0.00000591
C        8.27641651       8.76263301       7.72079977      -0.00027022       0.00021957      -0.00114286      -0.00027022       0.00021957      -0.00114286
C        6.71523990       8.76268333       7.72099000       0.00020029       0.00020569      -0.00059238       0.00020029       0.00020569      -0.00059238
C        6.13492001       7.49562442       7.06932819       0.00013473       0.00005656      -0.00049545       0.00013473       0.00005656      -0.00049545
C        6.71520178       6.22862796       7.72103373       0.00015761      -0.00019386      -0.00059598       0.00015761      -0.00019386      -0.00059598
C        8.27637725       6.22870291       7.72082188      -0.00024991      -0.00024914      -0.00114337      -0.00024991      -0.00024914      -0.00114337
H        9.95303598       7.49567080       7.15459999       0.00120328      -0.00001157       0.00240784       0.00120328      -0.00001157       0.00240784
H        8.62655188       7.49570327       5.99099988       0.00133954      -0.00001311      -0.00007816       0.00133954      -0.00001311      -0.00007816
H        8.65865446       9.65472010       7.20325277       0.00074202       0.00099836       0.00145139       0.00074202       0.00099836       0.00145139
H        8.64672865       8.82025068       8.75663679       0.00067800      -0.00224509      -0.00173241       0.00067800      -0.00224509      -0.00173241
H        6.33289539       9.65466932       7.20333954      -0.00077339       0.00112769       0.00149433      -0.00077339       0.00112769       0.00149433
H        6.34515109       8.82061749       8.75690248      -0.00053967      -0.00216615      -0.00191547      -0.00053967      -0.00216615      -0.00191547
H        6.36358877       7.49565362       5.99144823      -0.00164988       0.00004911       0.00055356      -0.00164988       0.00004911       0.00055356
H        5.03807867       7.49570553       7.15617921      -0.00153315      -0.00000463       0.00251608      -0.00153315      -0.00000463       0.00251608
H        6.33281842       5.33662264       7.20347925      -0.00079678      -0.00114491       0.00142645      -0.00079678      -0.00114491       0.00142645
H        6.34514724       6.17087225       8.75696615      -0.00054662       0.00219701      -0.00187305      -0.00054662       0.00219701      -0.00187305
H        8.64668099       6.17125217       8.75666862       0.00068366       0.00221552      -0.00166505       0.00068366       0.00221552      -0.00166505
H        8.65866624       5.33661593       7.20335041       0.00074999      -0.00109555       0.00139020       0.00074999      -0.00109555       0.00139020
