18
Lattice="14.99999999685098 0.0 0.0 0.0 14.99999999685098 0.0 0.0 0.0 14.99999999685098" Properties=species:S:1:pos:R:3:forces_eV_per_au:R:3:forces:R:3 energy_eV=-1124.2066926686875 energy=-1124.2066926686875 free_energy=-1124.2066926686875 pbc="T T T"
C        8.85748200       7.49568150       7.08618150       0.29036059       0.00087957      -0.04433945       0.29036059       0.00087957      -0.04433945
C        8.26278150       8.76018150       7.71298200       0.53194659       0.28734906       0.02454067       0.53194659       0.28734906       0.02454067
C        6.72858150       8.76018150       7.71298200      -0.52927136       0.28652451       0.02416580      -0.52927136       0.28652451       0.02416580
C        6.13388100       7.49568150       7.08618150      -0.29316258      -0.00065897      -0.04298730      -0.29316258      -0.00065897      -0.04298730
C        6.72858150       6.23118150       7.71298200      -0.52865146      -0.28735523       0.02400459      -0.52865146      -0.28735523       0.02400459
C        8.26278150       6.23118150       7.71298200       0.53079705      -0.28856725       0.02430695       0.53079705      -0.28856725       0.02430695
H        9.95348100       7.49568150       7.24168200      -0.18049633       0.00015581      -0.20988455      -0.18049633       0.00015581      -0.20988455
H        8.66218200       7.49568150       5.99658150       0.11268657       0.00015272       0.14811277       0.11268657       0.00015272       0.14811277
H        8.63058150       9.64268100       7.15498200       0.05568238      -0.12915294       0.25685141       0.05568238      -0.12915294       0.25685141
H        8.61778200       8.83998150       8.75868150       0.09266024       0.05178742      -0.22840164       0.09266024       0.05178742      -0.22840164
H        6.36078150       9.64268100       7.15498200      -0.05600634      -0.12917839       0.25685912      -0.05600634      -0.12917839       0.25685912
H        6.37358100       8.83998150       8.75868150      -0.09298292       0.05178305      -0.22842632      -0.09298292       0.05178305      -0.22842632
H        6.32918100       7.49568150       5.99658150      -0.11303984       0.00014810       0.14816059      -0.11303984       0.00014810       0.14816059
H        5.03788200       7.49568150       7.24168200       0.18012840       0.00015092      -0.20986938       0.18012840       0.00015092      -0.20986938
H        6.36078150       5.34868200       7.15498200      -0.05600223       0.12948024       0.25687095      -0.05600223       0.12948024       0.25687095
H        6.37358100       6.15138150       8.75868150      -0.09298729      -0.05148557      -0.22842143      -0.09298729      -0.05148557      -0.22842143
H        8.61778200       6.15138150       8.75868150       0.09266410      -0.05148428      -0.22840395       0.09266410      -0.05148428      -0.22840395
H        8.63058150       5.34868200       7.15498200       0.05567415       0.12947176       0.25686195       0.05567415       0.12947176       0.25686195
