18
Lattice="80.0 0.0 0.0 0.0 80.0 0.0 0.0 0.0 80.0" Properties=species:S:1:pos:R:3:charge:R:1 #=T CELL(abcABC):=T 151.17809=T 90.00000=T Step:=T 0=T Bead:=T positionsatomic_unit=T cellatomic_unit=T Name=Cyclohexane:chair energy_eV=-403.4162564902496 energy=-403.4162564902496 dipole="-2.574447129393087e-05 -8.334011889169935e-05 1.266321064879272e-05" pbc="F F F"
C        1.44250491       0.00420177      -0.25503722      -0.15230637
C        0.71753737       1.25134524       0.25501398      -0.15230795
C        0.72489822      -1.24708577       0.25503620      -0.15230292
C       -0.72490985       1.24712769      -0.25502610      -0.15232158
C       -1.44247420      -0.00424160       0.25501398      -0.15229995
C       -0.71755429      -1.25130331      -0.25500441      -0.15228216
H        1.44252607       0.00427810      -1.34496719       0.07535655
H        2.47015654       0.00723259       0.10831546       0.07693627
H        0.71757441       1.25127115       1.34502598       0.07536420
H        1.22879667       2.14284486      -0.10825826       0.07693854
H        1.24135934      -2.13556379      -0.10830272       0.07694747
H        0.72487176      -1.24716515       1.34496777       0.07536334
H       -1.24137626       2.13560571       0.10831282       0.07693631
H       -0.72484106       1.24712240      -1.34498836       0.07535478
H       -1.44254300      -0.00423562       1.34497835       0.07536834
H       -2.47012584      -0.00727237      -0.10833870       0.07694066
H       -0.71760721      -1.25136681      -1.34499894       0.07536824
H       -1.22881360      -2.14280293       0.10826837       0.07694624
