18
Lattice="14.99999999685098 0.0 0.0 0.0 14.99999999685098 0.0 0.0 0.0 14.99999999685098" Properties=species:S:1:pos:R:3:forces_eV_per_au:R:3:forces:R:3 energy_eV=-1124.5646626412035 energy=-1124.5646626412035 free_energy=-1124.5646626412035 pbc="T T T"
C        8.96398664       7.50478331       7.26468836      -0.00060370       0.00037512      -0.00233430      -0.00060370       0.00037512      -0.00233430
C        8.22793404       8.77072582       7.73509565      -0.00059290      -0.00055870       0.00211576      -0.00059290      -0.00055870       0.00211576
C        8.23628152       6.23408132       7.73530199       0.00004757       0.00078007       0.00205868       0.00004757       0.00078007       0.00205868
C        6.76371909       8.76592184       7.26470035      -0.00001671      -0.00083741      -0.00219315      -0.00001671      -0.00083741      -0.00219315
C        6.03601001       7.49521999       7.73531068       0.00064972      -0.00036844       0.00241118       0.00064972      -0.00036844       0.00241118
C        6.77206491       6.22927485       7.26491178       0.00056204       0.00052656      -0.00206691       0.00056204       0.00052656      -0.00206691
H        9.00827882       7.50476320       6.16139095       0.00033733       0.00029491       0.00181006       0.00033733       0.00029491       0.00181006
H       10.00325325       7.50813039       7.62792592      -0.00044249       0.00054379      -0.00072505      -0.00044249       0.00054379      -0.00072505
H        8.25012491       8.80934954       8.83839162       0.00007328       0.00039749      -0.00206177       0.00007328       0.00039749      -0.00206177
H        8.74493498       9.67218546       7.37162229      -0.00105287      -0.00034504       0.00027279      -0.00105287      -0.00034504       0.00027279
H        8.75896052       5.33589557       7.37183235      -0.00012907       0.00093640       0.00042783      -0.00012907       0.00093640       0.00042783
H        8.25867963       6.19559292       8.83859119       0.00053839       0.00010233      -0.00193116       0.00053839       0.00010233      -0.00193116
H        6.24103304       9.66410681       7.62815936       0.00014398      -0.00091403      -0.00041755       0.00014398      -0.00091403      -0.00041755
H        6.74133316       8.80439985       6.16140900      -0.00056359      -0.00007430       0.00196818      -0.00056359      -0.00007430       0.00196818
H        5.99170726       7.49524685       8.83860947      -0.00032653      -0.00031573      -0.00186251      -0.00032653      -0.00031573      -0.00186251
H        4.99674796       7.49187611       7.37206502       0.00039621      -0.00055639       0.00070988       0.00039621      -0.00055639       0.00070988
H        6.74986100       6.19063106       6.16161719      -0.00002365      -0.00034427       0.00204917      -0.00002365      -0.00034427       0.00204917
H        6.25507488       5.32781290       7.62839345       0.00100299       0.00035738      -0.00023089       0.00100299       0.00035738      -0.00023089
