18
Lattice="80.0 0.0 0.0 0.0 80.0 0.0 0.0 0.0 80.0" Properties=species:S:1:pos:R:3:charge:R:1 BendBendEnergy=0.26401833542875874 BendBendTorsionEnergy=-0.21424500865816173 BendEnergy=3.183388870497358 ConstraintEnergy=2.3919459031056293e-06 Name=Cyclohexane:half-chair NonbondEnergy=5.197098161555235 OopOopEnergy=0 OutOfPlaneEnergy=0 RootMeanSquaredGradient=2.1403442767521727e-07 StretchBendEnergy=0.04710909037737253 StretchEnergy=0.028370599337804156 StretchStretchEnergy=-5.593638116692474e-05 TorsionEnergy=8.464851917656699 TotalEnergy=16.9705384217598 TwistEnergy=0 energy_eV=-403.2362062864803 energy=-403.2362062864803 dipole="-1.5875316316915233e-08 0.00014271380191696232 -5.556360710920332e-07" pbc="F F F"
C        1.49830000       0.05140000       0.12030000      -0.15676135
C        0.67430000       1.24130000      -0.36080000      -0.15237466
C       -0.67430000       1.24130000       0.36080000      -0.15237492
C       -1.49830000       0.05140000      -0.12030000      -0.15676135
C       -0.75160000      -1.28050000      -0.13860000      -0.15245379
C        0.75160000      -1.28050000       0.13860000      -0.15245409
H        1.83550000       0.26680000       1.15310000       0.07723721
H        2.40220000      -0.04870000      -0.51090000       0.07727635
H        0.51330000       1.17890000      -1.45440000       0.07565473
H        1.22490000       2.17350000      -0.12990000       0.07788350
H       -1.22490000       2.17350000       0.12990000       0.07788329
H       -0.51330000       1.17890000       1.45440000       0.07565449
H       -1.83550000       0.26680000      -1.15310000       0.07723726
H       -2.40220000      -0.04870000       0.51090000       0.07727635
H       -0.91340000      -1.73670000      -1.13490000       0.07565887
H       -1.22530000      -1.95900000       0.59730000       0.07787974
H        0.91340000      -1.73670000       1.13490000       0.07565877
H        1.22530000      -1.95900000      -0.59730000       0.07787957
