18
Lattice="14.99999999685098 0.0 0.0 0.0 14.99999999685098 0.0 0.0 0.0 14.99999999685098" Properties=species:S:1:pos:R:3:forces_eV_per_au:R:3:forces:R:3 energy_eV=-1124.005276726453 energy=-1124.005276726453 free_energy=-1124.005276726453 pbc="T T T"
C        8.89950600       7.50580500       7.89820500       0.26222193       0.00076696      -0.26801771       0.26222193       0.00076696      -0.26801771
C        8.28310500       8.74040550       7.24190550       0.43639720       0.28841864       0.02564855       0.43639720       0.28841864       0.02564855
C        6.77810550       8.82480600       7.47240600      -0.25855450       0.90063173      -0.03517963      -0.25855450       0.90063173      -0.03517963
C        6.03350550       7.50580500       7.67500500      -1.01267655       0.00138917       0.30892087      -1.01267655       0.00138917       0.30892087
C        6.77810550       6.18680550       7.47240600      -0.25908441      -0.90294443      -0.03314229      -0.25908441      -0.90294443      -0.03314229
C        8.28310500       6.27120600       7.24190550       0.43652627      -0.28814867       0.02588612       0.43652627      -0.28814867       0.02588612
H        8.70150600       7.50580500       8.98750500       0.11179465      -0.00000386      -0.10280659       0.11179465      -0.00000386      -0.10280659
H        9.99230550       7.50580500       7.72240500      -0.16450201      -0.00000823       0.24270391      -0.16450201      -0.00000823       0.24270391
H        8.48090550       8.69660550       6.15320550       0.13266892      -0.00855355       0.16820928       0.13266892      -0.00855355       0.16820928
H        8.75700600       9.65810550       7.64030550      -0.03735761      -0.11682321      -0.23747583      -0.03735761      -0.11682321      -0.23747583
H        6.32540550       9.36570600       6.61880550       0.08273810       0.03715501       0.26925852       0.08273810       0.03715501       0.26925852
H        6.60160500       9.44090550       8.37570600       0.01590562       0.00721914      -0.26402478       0.01590562       0.00721914      -0.26402478
H        5.14090500       7.50580500       7.01960550       0.11952750      -0.00001157       0.26863169       0.11952750      -0.00001157       0.26863169
H        5.65280550       7.50580500       8.71530600      -0.05952181      -0.00000823      -0.30469424      -0.05952181      -0.00000823      -0.30469424
H        6.32540550       5.64590550       6.61880550       0.08274221      -0.03715990       0.26927909       0.08274221      -0.03715990       0.26927909
H        6.60160500       5.57070600       8.37570600       0.01587605      -0.00731890      -0.26389109       0.01587605      -0.00731890      -0.26389109
H        8.75700600       5.35350600       7.64030550      -0.03737458       0.11685767      -0.23748200      -0.03737458       0.11685767      -0.23748200
H        8.48090550       6.31500600       6.15320550       0.13267304       0.00854172       0.16817611       0.13267304       0.00854172       0.16817611
