18
Lattice="14.99999999685098 0.0 0.0 0.0 14.99999999685098 0.0 0.0 0.0 14.99999999685098" Properties=species:S:1:pos:R:3:forces_eV_per_au:R:3:forces:R:3 energy_eV=-1124.0062217778147 energy=-1124.0062217778147 free_energy=-1124.0062217778147 pbc="T T T"
C        9.00248550       7.55558550       7.62448500       0.69034094       0.35995136       0.02831247       0.69034094       0.35995136       0.02831247
C        8.17848450       8.74548450       7.14338550       0.09179610       0.30274791       0.19192411       0.09179610       0.30274791       0.19192411
C        6.82988550       8.74548450       7.86498450      -0.09254994       0.30277928      -0.19257691      -0.09254994       0.30277928      -0.19257691
C        6.00588450       7.55558550       7.38388500      -0.69108348       0.35965851      -0.02804328      -0.69108348       0.35965851      -0.02804328
C        6.75258450       6.22368450       7.36558500      -0.54745188      -0.86593417      -0.21867798      -0.54745188      -0.86593417      -0.21867798
C        8.25578550       6.22368450       7.64278500       0.54717755      -0.86413723       0.21681856       0.54717755      -0.86413723       0.21681856
H        9.33968550       7.77098550       8.65728450       0.04032904       0.09882652      -0.22695385       0.04032904       0.09882652      -0.22695385
H        9.90638550       7.45548450       6.99328500      -0.06734773       0.08453196       0.24712647      -0.06734773       0.08453196       0.24712647
H        8.01748500       8.68308450       6.04978500      -0.01330263       0.11592718       0.11532015      -0.01330263       0.11592718       0.11532015
H        8.72908500       9.67768500       7.37428500      -0.07059015      -0.13684208      -0.24072442      -0.07059015      -0.13684208      -0.24072442
H        6.27928500       9.67768500       7.63408500       0.07087554      -0.13682408       0.24111394       0.07087554      -0.13682408       0.24111394
H        6.99088500       8.68308450       8.95858500       0.01361425       0.11592821      -0.11497665       0.01361425       0.11592821      -0.11497665
H        5.66868450       7.77098550       6.35108550      -0.04003053       0.09882935       0.22731792      -0.04003053       0.09882935       0.22731792
H        5.10198450       7.45548450       8.01508500       0.06761281       0.08451653      -0.24670275       0.06761281       0.08451653      -0.24670275
H        6.59078550       5.76748500       6.36928500      -0.05478018      -0.01445706       0.29668268      -0.05478018      -0.01445706       0.29668268
H        6.27888450       5.54518500       8.10148500       0.06611952       0.05445854      -0.27408191       0.06611952       0.05445854      -0.27408191
H        8.41758450       5.76748500       8.63908500       0.05507869      -0.01443134      -0.29635435       0.05507869      -0.01443134      -0.29635435
H        8.72948550       5.54518500       6.90688500      -0.06580764       0.05447088       0.27447555      -0.06580764       0.05447088       0.27447555
