18
Lattice="14.99999999685098 0.0 0.0 0.0 14.99999999685098 0.0 0.0 0.0 14.99999999685098" Properties=species:S:1:pos:R:3:forces_eV_per_au:R:3:forces:R:3 energy_eV=-1123.2861218924743 energy=-1123.2861218924743 free_energy=-1123.2861218924743 pbc="T T T"
C        9.01380000       7.50000000       7.50000000       1.36899005       0.00000154      -0.00000000       1.36899005       0.00000154      -0.00000000
C        8.25690000       8.81100000       7.50000000       0.68837816       1.18383128       0.00000000       0.68837816       1.18383128       0.00000000
C        6.74310000       8.81100000       7.50000000      -0.68837970       1.18383000      -0.00000026      -0.68837970       1.18383000      -0.00000026
C        5.98620000       7.50000000       7.50000000      -1.36899056      -0.00000103       0.00000000      -1.36899056      -0.00000103       0.00000000
C        6.74310000       6.18900000       7.50000000      -0.68837842      -1.18383103      -0.00000026      -0.68837842      -1.18383103      -0.00000026
C        8.25690000       6.18900000       7.50000000       0.68837945      -1.18383051      -0.00000051       0.68837945      -1.18383051      -0.00000051
H        9.68239950       7.50000000       8.38320000      -0.03777259       0.00000000      -0.29286690      -0.03777259       0.00000000      -0.29286690
H        9.68239950       7.50000000       6.61680000      -0.03777259      -0.00000000       0.29286716      -0.03777259      -0.00000000       0.29286716
H        8.59120050       9.39000000       6.61680000      -0.01888604      -0.03233316       0.29249487      -0.01888604      -0.03233316       0.29249487
H        8.59120050       9.39000000       8.38320000      -0.01888578      -0.03233316      -0.29249487      -0.01888578      -0.03233316      -0.29249487
H        6.40879950       9.39000000       6.61680000       0.01888552      -0.03233471       0.29249615       0.01888552      -0.03233471       0.29249615
H        6.40879950       9.39000000       8.38320000       0.01888527      -0.03233445      -0.29249615       0.01888527      -0.03233445      -0.29249615
H        5.31760050       7.50000000       6.61680000       0.03777439      -0.00000000       0.29286973       0.03777439      -0.00000000       0.29286973
H        5.31760050       7.50000000       8.38320000       0.03777439      -0.00000000      -0.29286973       0.03777439      -0.00000000      -0.29286973
H        6.40879950       5.61000000       6.61680000       0.01888527       0.03233471       0.29249641       0.01888527       0.03233471       0.29249641
H        6.40879950       5.61000000       8.38320000       0.01888527       0.03233471      -0.29249641       0.01888527       0.03233471      -0.29249641
H        8.59120050       5.61000000       8.38320000      -0.01888578       0.03233291      -0.29249461      -0.01888578       0.03233291      -0.29249461
H        8.59120050       5.61000000       6.61680000      -0.01888604       0.03233316       0.29249487      -0.01888604       0.03233316       0.29249487
