18
Lattice="14.99999999685098 0.0 0.0 0.0 14.99999999685098 0.0 0.0 0.0 14.99999999685098" Properties=species:S:1:pos:R:3:forces_eV_per_au:R:3:forces:R:3 energy_eV=-1123.467088343677 energy=-1123.467088343677 free_energy=-1123.467088343677 pbc="T T T"
C        9.05725981       7.50000001       7.50000000       0.00007533      -0.00000000       0.00000000       0.00007533      -0.00000000       0.00000000
C        8.27863012       8.84851574       7.50000000      -0.00013575      -0.00049211       0.00000026      -0.00013575      -0.00049211       0.00000026
C        6.72136987       8.84851573       7.50000000       0.00013575      -0.00049211      -0.00000026       0.00013575      -0.00049211      -0.00000026
C        5.94274019       7.49999999       7.50000000      -0.00007533       0.00000000       0.00000026      -0.00007533       0.00000000       0.00000026
C        6.72136988       6.15148426       7.50000000       0.00013575       0.00049211       0.00000000       0.00013575       0.00049211       0.00000000
C        8.27863013       6.15148426       7.50000000      -0.00013575       0.00049211      -0.00000026      -0.00013575       0.00049211      -0.00000026
H        9.72463245       7.50000001       8.37256293       0.00063378       0.00000000       0.00021957       0.00063378       0.00000000       0.00021957
H        9.72463245       7.50000001       6.62743707       0.00063378      -0.00000000      -0.00021957       0.00063378      -0.00000000      -0.00021957
H        8.61228903       9.42656076       6.62746627      -0.00002314       0.00002391      -0.00023268      -0.00002314       0.00002391      -0.00023268
H        8.61228903       9.42656076       8.37253373      -0.00002314       0.00002365       0.00023268      -0.00002314       0.00002365       0.00023268
H        6.38771095       9.42656075       6.62746626       0.00002314       0.00002365      -0.00023243       0.00002314       0.00002365      -0.00023243
H        6.38771095       9.42656075       8.37253373       0.00002314       0.00002391       0.00023268       0.00002314       0.00002391       0.00023268
H        5.27536755       7.49999999       6.62743707      -0.00063378       0.00000000      -0.00021957      -0.00063378       0.00000000      -0.00021957
H        5.27536755       7.49999999       8.37256293      -0.00063378      -0.00000000       0.00021957      -0.00063378      -0.00000000       0.00021957
H        6.38771096       5.57343924       6.62746627       0.00002314      -0.00002391      -0.00023268       0.00002314      -0.00002391      -0.00023268
H        6.38771096       5.57343924       8.37253373       0.00002314      -0.00002391       0.00023268       0.00002314      -0.00002391       0.00023268
H        8.61228905       5.57343924       8.37253373      -0.00002314      -0.00002391       0.00023268      -0.00002314      -0.00002391       0.00023268
H        8.61228904       5.57343925       6.62746626      -0.00002314      -0.00002365      -0.00023268      -0.00002314      -0.00002365      -0.00023268
