18
Lattice="14.99999999685098 0.0 0.0 0.0 14.99999999685098 0.0 0.0 0.0 14.99999999685098" Properties=species:S:1:pos:R:3:forces_eV_per_au:R:3:forces:R:3 energy_eV=-1124.2562587486264 energy=-1124.2562587486264 free_energy=-1124.2562587486264 pbc="T T T"
C        9.01819950       7.50000000       7.50000000       0.42433615      -0.00000000      -0.00000000       0.42433615      -0.00000000      -0.00000000
C        8.16619950       8.72119950       7.87609950       0.04701236       0.34348781       0.08377965       0.04701236       0.34348781       0.08377965
C        6.83380050       8.72119950       7.12390050      -0.04701236       0.34348781      -0.08377965      -0.04701236       0.34348781      -0.08377965
C        5.98180050       7.50000000       7.50000000      -0.42433615      -0.00000000      -0.00000000      -0.42433615      -0.00000000      -0.00000000
C        6.83380050       6.27880050       7.87609950      -0.04701236      -0.34348781       0.08377965      -0.04701236      -0.34348781       0.08377965
C        8.16619950       6.27880050       7.12390050       0.04701211      -0.34348781      -0.08377965       0.04701211      -0.34348781      -0.08377965
H        9.66610050       7.24759950       8.36149950       0.01431822       0.04032364      -0.24782786       0.01431822       0.04032364      -0.24782786
H        9.66610050       7.75240050       6.63850050       0.01431822      -0.04032364       0.24782786       0.01431822      -0.04032364       0.24782786
H        8.73049950       9.64380000       7.64070000      -0.13198270      -0.11920431       0.23983456      -0.13198270      -0.11920431       0.23983456
H        7.96200000       8.70270000       8.96430000       0.03790963       0.12579791      -0.15661926       0.03790963       0.12579791      -0.15661926
H        7.03800000       8.70270000       6.03570000      -0.03790963       0.12579791       0.15661926      -0.03790963       0.12579791       0.15661926
H        6.26950050       9.64380000       7.35930000       0.13198270      -0.11920431      -0.23983456       0.13198270      -0.11920431      -0.23983456
H        5.33389950       7.24759950       6.63850050      -0.01431796       0.04032364       0.24782786      -0.01431796       0.04032364       0.24782786
H        5.33389950       7.75240050       8.36149950      -0.01431796      -0.04032364      -0.24782786      -0.01431796      -0.04032364      -0.24782786
H        6.26950050       5.35620000       7.64070000       0.13198270       0.11920431       0.23983456       0.13198270       0.11920431       0.23983456
H        7.03800000       6.29730000       8.96430000      -0.03790963      -0.12579791      -0.15661926      -0.03790963      -0.12579791      -0.15661926
H        8.73049950       5.35620000       7.35930000      -0.13198270       0.11920457      -0.23983456      -0.13198270       0.11920457      -0.23983456
H        7.96200000       6.29730000       6.03570000       0.03790963      -0.12579791       0.15661926       0.03790963      -0.12579791       0.15661926
