18
Lattice="14.99999999685098 0.0 0.0 0.0 14.99999999685098 0.0 0.0 0.0 14.99999999685098" Properties=species:S:1:pos:R:3:forces_eV_per_au:R:3:forces:R:3 energy_eV=-1124.303847241243 energy=-1124.303847241243 free_energy=-1124.303847241243 pbc="T T T"
C        9.02628125       7.50000000       7.50000000       0.00156349      -0.00000000       0.00000000       0.00156349      -0.00000000       0.00000000
C        8.15868207       8.72147776       7.89494968       0.00004088      -0.00070577      -0.00092251       0.00004088      -0.00070577      -0.00092251
C        6.84131793       8.72147776       7.10505033      -0.00004062      -0.00070577       0.00092251      -0.00004062      -0.00070577       0.00092251
C        5.97371875       7.50000000       7.50000000      -0.00156349      -0.00000000      -0.00000000      -0.00156349      -0.00000000      -0.00000000
C        6.84131792       6.27852223       7.89494967      -0.00004062       0.00070602      -0.00092225      -0.00004062       0.00070602      -0.00092225
C        8.15868207       6.27852224       7.10505032       0.00004062       0.00070577       0.00092225       0.00004062       0.00070577       0.00092225
H        9.68348378       7.23112169       8.34129390       0.00183011       0.00072788       0.00023988       0.00183011       0.00072788       0.00023988
H        9.68348378       7.76887830       6.65870610       0.00183011      -0.00072788      -0.00023988       0.00183011      -0.00072788      -0.00023988
H        8.71864231       9.65362938       7.73088944      -0.00176918       0.00052271      -0.00093922      -0.00176918       0.00052271      -0.00093922
H        7.92464528       8.68053585       8.97142764      -0.00160360      -0.00063352      -0.00168562      -0.00160360      -0.00063352      -0.00168562
H        7.07535472       8.68053585       6.02857236       0.00160360      -0.00063352       0.00168562       0.00160360      -0.00063352       0.00168562
H        6.28135769       9.65362938       7.26911056       0.00176918       0.00052296       0.00093922       0.00176918       0.00052296       0.00093922
H        5.31651622       7.23112170       6.65870610      -0.00183011       0.00072788      -0.00023988      -0.00183011       0.00072788      -0.00023988
H        5.31651622       7.76887830       8.34129390      -0.00183011      -0.00072788       0.00023988      -0.00183011      -0.00072788       0.00023988
H        6.28135769       5.34637062       7.73088944       0.00176918      -0.00052296      -0.00093922       0.00176918      -0.00052296      -0.00093922
H        7.07535472       6.31946415       8.97142764       0.00160360       0.00063352      -0.00168562       0.00160360       0.00063352      -0.00168562
H        8.71864231       5.34637062       7.26911056      -0.00176918      -0.00052296       0.00093922      -0.00176918      -0.00052296       0.00093922
H        7.92464528       6.31946415       6.02857236      -0.00160360       0.00063352       0.00168562      -0.00160360       0.00063352       0.00168562
