18
Lattice="80.0 0.0 0.0 0.0 80.0 0.0 0.0 0.0 80.0" Properties=species:S:1:pos:R:3:charge:R:1 BendBendEnergy=0.012026338675122733 BendBendTorsionEnergy=0.0020601783763959294 BendEnergy=0.3287502177337631 ConstraintEnergy=0 Name=Cyclohexane:twist-boat NonbondEnergy=5.429192499120249 OopOopEnergy=0 OutOfPlaneEnergy=0 RootMeanSquaredGradient=1.2539458952538405e-07 StretchBendEnergy=0.12316622088251425 StretchEnergy=0.15197380145144368 StretchStretchEnergy=0.010019772221879896 TorsionEnergy=5.467436638582926 TotalEnergy=11.524625667044296 TwistEnergy=0 energy_eV=-403.2362422191155 energy=-403.2362422191155 dipole="-0.0 0.0 -0.0" pbc="F F F"
C        1.51820000      -0.00000000       0.00000000      -0.15677861
C        0.66620000       1.22120000       0.37610000      -0.15246984
C       -0.66620000       1.22120000      -0.37610000      -0.15246984
C       -1.51820000      -0.00000000      -0.00000000      -0.15677861
C       -0.66620000      -1.22120000       0.37610000      -0.15246984
C        0.66620000      -1.22120000      -0.37610000      -0.15246984
H        2.16610000      -0.25240000       0.86150000       0.07727321
H        2.16610000       0.25240000      -0.86150000       0.07727321
H        1.23050000       2.14380000       0.14070000       0.07792808
H        0.46200000       1.20270000       1.46430000       0.07565786
H       -0.46200000       1.20270000      -1.46430000       0.07565786
H       -1.23050000       2.14380000      -0.14070000       0.07792808
H       -2.16610000      -0.25240000      -0.86150000       0.07727321
H       -2.16610000       0.25240000       0.86150000       0.07727321
H       -1.23050000      -2.14380000       0.14070000       0.07792808
H       -0.46200000      -1.20270000       1.46430000       0.07565786
H        1.23050000      -2.14380000      -0.14070000       0.07792808
H        0.46200000      -1.20270000      -1.46430000       0.07565786
