
     Program PWSCF v.6.7MaX starts on 28Oct2021 at 11:51:56 

     This program is part of the open-source Quantum ESPRESSO suite
     for quantum simulation of materials; please cite
         "P. Giannozzi et al., J. Phys.:Condens. Matter 21 395502 (2009);
         "P. Giannozzi et al., J. Phys.:Condens. Matter 29 465901 (2017);
          URL http://www.quantum-espresso.org", 
     in publications or presentations arising from this work. More details at
     http://www.quantum-espresso.org/quote

     Parallel version (MPI & OpenMP), running on       8 processor cores
     Number of MPI processes:                 1
     Threads/MPI process:                     8

     MPI processes distributed on     1 nodes
     Reading input from md.in
Warning: card &CELL ignored
Warning: card / ignored

     Current dimensions of program PWSCF are:
     Max number of different atomic species (ntypx) = 10
     Max number of k-points (npk) =  40000
     Max angular momentum in pseudopotentials (lmaxx) =  3

     -------------------------------------------------
     Parameters for Dispersion (Grimme-D2) Correction:
     -------------------------------------------------
       atom      VdW radius       C_6     

        H          1.892          4.857
        C          2.744         60.710

     gamma-point specific algorithms are used

     Subspace diagonalization in iterative solution of the eigenvalue problem:
     a serial algorithm will be used


     G-vector sticks info
     --------------------
     sticks:   dense  smooth     PW     G-vecs:    dense   smooth      PW
     Sum       15329   15329   3833              1429635  1429635  178925



     bravais-lattice index     =            0
     lattice parameter (alat)  =      28.3459  a.u.
     unit-cell volume          =   22775.6289 (a.u.)^3
     number of atoms/cell      =           18
     number of atomic types    =            2
     number of electrons       =        36.00
     number of Kohn-Sham states=           21
     kinetic-energy cutoff     =      60.0000  Ry
     charge density cutoff     =     240.0000  Ry
     scf convergence threshold =      1.0E-10
     mixing beta               =       0.5000
     number of iterations used =            8  plain     mixing
     Exchange-correlation=  SLA  PW   PBX  PBC
                           (   1   4   3   4   0   0   0)

     celldm(1)=  28.345892  celldm(2)=   0.000000  celldm(3)=   0.000000
     celldm(4)=   0.000000  celldm(5)=   0.000000  celldm(6)=   0.000000

     crystal axes: (cart. coord. in units of alat)
               a(1) = (   1.000000   0.000000   0.000000 )  
               a(2) = (   0.000000   1.000000   0.000000 )  
               a(3) = (   0.000000   0.000000   1.000000 )  

     reciprocal axes: (cart. coord. in units 2 pi/alat)
               b(1) = (  1.000000  0.000000  0.000000 )  
               b(2) = (  0.000000  1.000000  0.000000 )  
               b(3) = (  0.000000  0.000000  1.000000 )  


     PseudoPot. # 1 for H  read from file:
     /Users/rca/source_installs/espresso/pseudo/H.pbe-tm-new-gipaw-dc.UPF
     MD5 check sum: 0e5abdcbf773fd5bd1c97111569d22ab
     Pseudo is Norm-conserving, Zval =  1.0
     Generated by new atomic code, or converted to UPF format
     Using radial grid of 1261 points,  0 beta functions with: 

     PseudoPot. # 2 for C  read from file:
     /Users/rca/source_installs/espresso/pseudo/C.pbe-tm-new-gipaw-dc.UPF
     MD5 check sum: c9fa938d11269a3b0a4c160d8754c0f1
     Pseudo is Norm-conserving, Zval =  4.0
     Generated by new atomic code, or converted to UPF format
     Using radial grid of 1441 points,  1 beta functions with: 
                l(1) =   0

     atomic species   valence    mass     pseudopotential
        H              1.00     1.00790     H ( 1.00)
        C              4.00    12.01070     C ( 1.00)

     No symmetry found


                                    s                        frac. trans.

      isym =  1     identity                                     

 cryst.   s( 1) = (     1          0          0      )
                  (     0          1          0      )
                  (     0          0          1      )

 cart.    s( 1) = (  1.0000000  0.0000000  0.0000000 )
                  (  0.0000000  1.0000000  0.0000000 )
                  (  0.0000000  0.0000000  1.0000000 )


   Cartesian axes

     site n.     atom                  positions (alat units)
         1           C   tau(   1) = (   0.6001657   0.5037057   0.5082990  )
         2           C   tau(   2) = (   0.5452323   0.5830323   0.4762257  )
         3           C   tau(   3) = (   0.4553257   0.5830323   0.5243323  )
         4           C   tau(   4) = (   0.4003923   0.5037057   0.4922590  )
         5           C   tau(   5) = (   0.4501723   0.4149123   0.4910390  )
         6           C   tau(   6) = (   0.5503857   0.4149123   0.5095190  )
         7           H   tau(   7) = (   0.6226457   0.5180657   0.5771523  )
         8           H   tau(   8) = (   0.6604257   0.4970323   0.4662190  )
         9           H   tau(   9) = (   0.5344990   0.5788723   0.4033190  )
        10           H   tau(  10) = (   0.5819390   0.6451790   0.4916190  )
        11           H   tau(  11) = (   0.4186190   0.6451790   0.5089390  )
        12           H   tau(  12) = (   0.4660590   0.5788723   0.5972390  )
        13           H   tau(  13) = (   0.3779123   0.5180657   0.4234057  )
        14           H   tau(  14) = (   0.3401323   0.4970323   0.5343390  )
        15           H   tau(  15) = (   0.4393857   0.3844990   0.4246190  )
        16           H   tau(  16) = (   0.4185923   0.3696790   0.5400990  )
        17           H   tau(  17) = (   0.5611723   0.3844990   0.5759390  )
        18           H   tau(  18) = (   0.5819657   0.3696790   0.4604590  )

   Crystallographic axes

     site n.     atom                  positions (cryst. coord.)
         1           C   tau(   1) = (  0.6001657  0.5037057  0.5082990  )
         2           C   tau(   2) = (  0.5452323  0.5830323  0.4762257  )
         3           C   tau(   3) = (  0.4553257  0.5830323  0.5243323  )
         4           C   tau(   4) = (  0.4003923  0.5037057  0.4922590  )
         5           C   tau(   5) = (  0.4501723  0.4149123  0.4910390  )
         6           C   tau(   6) = (  0.5503857  0.4149123  0.5095190  )
         7           H   tau(   7) = (  0.6226457  0.5180657  0.5771523  )
         8           H   tau(   8) = (  0.6604257  0.4970323  0.4662190  )
         9           H   tau(   9) = (  0.5344990  0.5788723  0.4033190  )
        10           H   tau(  10) = (  0.5819390  0.6451790  0.4916190  )
        11           H   tau(  11) = (  0.4186190  0.6451790  0.5089390  )
        12           H   tau(  12) = (  0.4660590  0.5788723  0.5972390  )
        13           H   tau(  13) = (  0.3779123  0.5180657  0.4234057  )
        14           H   tau(  14) = (  0.3401323  0.4970323  0.5343390  )
        15           H   tau(  15) = (  0.4393857  0.3844990  0.4246190  )
        16           H   tau(  16) = (  0.4185923  0.3696790  0.5400990  )
        17           H   tau(  17) = (  0.5611723  0.3844990  0.5759390  )
        18           H   tau(  18) = (  0.5819657  0.3696790  0.4604590  )

     number of k points=     1
                       cart. coord. in units 2pi/alat
        k(    1) = (   0.0000000   0.0000000   0.0000000), wk =   2.0000000

                       cryst. coord.
        k(    1) = (   0.0000000   0.0000000   0.0000000), wk =   2.0000000

     Dense  grid:   714818 G-vectors     FFT dimensions: ( 144, 144, 144)

     Dynamical RAM for                 wfc:      28.64 MB

     Dynamical RAM for     wfc (w. buffer):      28.64 MB

     Dynamical RAM for           str. fact:      21.81 MB

     Dynamical RAM for           local pot:       0.00 MB

     Dynamical RAM for          nlocal pot:       8.18 MB

     Dynamical RAM for                qrad:       0.02 MB

     Dynamical RAM for          rho,v,vnew:     101.07 MB

     Dynamical RAM for               rhoin:      33.69 MB

     Dynamical RAM for            rho*nmix:     174.52 MB

     Dynamical RAM for           G-vectors:      46.36 MB

     Dynamical RAM for          h,s,v(r/c):       0.01 MB

     Dynamical RAM for          <psi|beta>:       0.00 MB

     Dynamical RAM for      wfcinit/wfcrot:     196.50 MB

     Estimated static dynamical RAM per process >     560.91 MB

     Estimated max dynamical RAM per process >     757.41 MB

     Initial potential from superposition of free atoms

     starting charge   29.99975, renormalised to   36.00000

     negative rho (up, down):  8.570E-04 0.000E+00
     Starting wfcs are   72 randomized atomic wfcs

     total cpu time spent up to now is        3.0 secs

     Self-consistent Calculation

     iteration #  1     ecut=    60.00 Ry     beta= 0.50
     CG style diagonalization
     ethr =  1.00E-02,  avg # of iterations =  3.0

     negative rho (up, down):  3.035E-04 0.000E+00

     total cpu time spent up to now is        6.5 secs

     total energy              =     -81.26361585 Ry
     estimated scf accuracy    <       4.59144919 Ry

     iteration #  2     ecut=    60.00 Ry     beta= 0.50
     CG style diagonalization
     ethr =  1.00E-02,  avg # of iterations =  4.0

     negative rho (up, down):  1.564E-04 0.000E+00

     total cpu time spent up to now is       10.5 secs

     total energy              =     -82.48548765 Ry
     estimated scf accuracy    <       0.81541022 Ry

     iteration #  3     ecut=    60.00 Ry     beta= 0.50
     CG style diagonalization
     ethr =  2.27E-03,  avg # of iterations =  3.7

     negative rho (up, down):  6.054E-06 0.000E+00

     total cpu time spent up to now is       14.3 secs

     total energy              =     -82.60370449 Ry
     estimated scf accuracy    <       0.05195966 Ry

     iteration #  4     ecut=    60.00 Ry     beta= 0.50
     CG style diagonalization
     ethr =  1.44E-04,  avg # of iterations =  4.2

     negative rho (up, down):  5.832E-06 0.000E+00

     total cpu time spent up to now is       18.4 secs

     total energy              =     -82.61351286 Ry
     estimated scf accuracy    <       0.00961351 Ry

     iteration #  5     ecut=    60.00 Ry     beta= 0.50
     CG style diagonalization
     ethr =  2.67E-05,  avg # of iterations =  3.2

     negative rho (up, down):  1.175E-07 0.000E+00

     total cpu time spent up to now is       21.6 secs

     total energy              =     -82.61137446 Ry
     estimated scf accuracy    <       0.00433115 Ry

     iteration #  6     ecut=    60.00 Ry     beta= 0.50
     CG style diagonalization
     ethr =  1.20E-05,  avg # of iterations =  4.8

     negative rho (up, down):  1.929E-07 0.000E+00

     total cpu time spent up to now is       26.1 secs

     total energy              =     -82.61276329 Ry
     estimated scf accuracy    <       0.00141141 Ry

     iteration #  7     ecut=    60.00 Ry     beta= 0.50
     CG style diagonalization
     ethr =  3.92E-06,  avg # of iterations =  3.6

     total cpu time spent up to now is       29.6 secs

     total energy              =     -82.61292344 Ry
     estimated scf accuracy    <       0.00008469 Ry

     iteration #  8     ecut=    60.00 Ry     beta= 0.50
     CG style diagonalization
     ethr =  2.35E-07,  avg # of iterations =  4.0

     total cpu time spent up to now is       33.6 secs

     total energy              =     -82.61293721 Ry
     estimated scf accuracy    <       0.00000626 Ry

     iteration #  9     ecut=    60.00 Ry     beta= 0.50
     CG style diagonalization
     ethr =  1.74E-08,  avg # of iterations =  4.4

     total cpu time spent up to now is       37.8 secs

     total energy              =     -82.61294123 Ry
     estimated scf accuracy    <       0.00000356 Ry

     iteration # 10     ecut=    60.00 Ry     beta= 0.50
     CG style diagonalization
     ethr =  9.88E-09,  avg # of iterations =  3.0

     total cpu time spent up to now is       40.8 secs

     total energy              =     -82.61294031 Ry
     estimated scf accuracy    <       0.00000202 Ry

     iteration # 11     ecut=    60.00 Ry     beta= 0.50
     CG style diagonalization
     ethr =  5.62E-09,  avg # of iterations =  3.7

     total cpu time spent up to now is       44.3 secs

     total energy              =     -82.61294076 Ry
     estimated scf accuracy    <          9.0E-09 Ry

     iteration # 12     ecut=    60.00 Ry     beta= 0.50
     CG style diagonalization
     ethr =  2.51E-11,  avg # of iterations =  4.5

     total cpu time spent up to now is       48.7 secs

     total energy              =     -82.61294077 Ry
     estimated scf accuracy    <          3.0E-10 Ry

     iteration # 13     ecut=    60.00 Ry     beta= 0.50
     CG style diagonalization
     ethr =  8.31E-13,  avg # of iterations =  4.4

     total cpu time spent up to now is       53.1 secs

     total energy              =     -82.61294077 Ry
     estimated scf accuracy    <          1.3E-09 Ry

     iteration # 14     ecut=    60.00 Ry     beta= 0.50
     CG style diagonalization
     ethr =  8.31E-13,  avg # of iterations =  4.3

     total cpu time spent up to now is       57.0 secs

     End of self-consistent calculation

          k = 0.0000 0.0000 0.0000 ( 89463 PWs)   bands (ev):

   -20.1271 -17.8823 -17.8738 -14.5936 -14.4524 -12.4256 -11.2626 -11.1571
   -10.2616  -9.8331  -8.9982  -8.5268  -8.5108  -8.0290  -7.7759  -6.7634
    -6.7345  -6.4646  -0.5052   0.0391   0.2581

     occupation numbers 
     1.0000   1.0000   1.0000   1.0000   1.0000   1.0000   1.0000   1.0000
     1.0000   1.0000   1.0000   1.0000   1.0000   1.0000   1.0000   1.0000
     1.0000   1.0000   0.0000   0.0000   0.0000

     highest occupied, lowest unoccupied level (ev):    -6.4646   -0.5052

!    total energy              =     -82.61294077 Ry
     estimated scf accuracy    <          7.8E-12 Ry

     The total energy is the sum of the following terms:
     one-electron contribution =    -431.97608536 Ry
     hartree contribution      =     220.45460993 Ry
     xc contribution           =     -29.73039127 Ry
     ewald contribution        =     158.66835080 Ry
     Dispersion Correction     =      -0.02942487 Ry

     convergence has been achieved in  14 iterations

     Forces acting on atoms (cartesian axes, Ry/au):

     atom    1 type  2   force =     0.02684999    0.01399988    0.00110118
     atom    2 type  2   force =     0.00357030    0.01177502    0.00746466
     atom    3 type  2   force =    -0.00359962    0.01177624   -0.00749005
     atom    4 type  2   force =    -0.02687887    0.01398849   -0.00109071
     atom    5 type  2   force =    -0.02129249   -0.03367948   -0.00850522
     atom    6 type  2   force =     0.02128182   -0.03360959    0.00843290
     atom    7 type  1   force =     0.00156855    0.00384374   -0.00882710
     atom    8 type  1   force =    -0.00261941    0.00328777    0.00961169
     atom    9 type  1   force =    -0.00051739    0.00450885    0.00448524
     atom   10 type  1   force =    -0.00274552   -0.00532231   -0.00936269
     atom   11 type  1   force =     0.00275662   -0.00532161    0.00937784
     atom   12 type  1   force =     0.00052951    0.00450889   -0.00447188
     atom   13 type  1   force =    -0.00155694    0.00384385    0.00884126
     atom   14 type  1   force =     0.00262972    0.00328717   -0.00959521
     atom   15 type  1   force =    -0.00213061   -0.00056229    0.01153912
     atom   16 type  1   force =     0.00257164    0.00211810   -0.01066009
     atom   17 type  1   force =     0.00214222   -0.00056129   -0.01152635
     atom   18 type  1   force =    -0.00255951    0.00211858    0.01067540
     The non-local contrib.  to forces
     atom    1 type  2   force =    -0.03556106   -0.01590772   -0.01628861
     atom    2 type  2   force =    -0.00810841   -0.03298425    0.03747664
     atom    3 type  2   force =     0.00801862   -0.03298867   -0.03755771
     atom    4 type  2   force =     0.03548863   -0.01593839    0.01628555
     atom    5 type  2   force =     0.02697440    0.02847538    0.00993647
     atom    6 type  2   force =    -0.02701298    0.02859617   -0.01009895
     atom    7 type  1   force =     0.00000000    0.00000000    0.00000000
     atom    8 type  1   force =     0.00000000    0.00000000    0.00000000
     atom    9 type  1   force =     0.00000000    0.00000000    0.00000000
     atom   10 type  1   force =     0.00000000    0.00000000    0.00000000
     atom   11 type  1   force =     0.00000000    0.00000000    0.00000000
     atom   12 type  1   force =     0.00000000    0.00000000    0.00000000
     atom   13 type  1   force =     0.00000000    0.00000000    0.00000000
     atom   14 type  1   force =     0.00000000    0.00000000    0.00000000
     atom   15 type  1   force =     0.00000000    0.00000000    0.00000000
     atom   16 type  1   force =     0.00000000    0.00000000    0.00000000
     atom   17 type  1   force =     0.00000000    0.00000000    0.00000000
     atom   18 type  1   force =     0.00000000    0.00000000    0.00000000
     The ionic contribution  to forces
     atom    1 type  2   force =     6.59294199    0.23091558    0.83788641
     atom    2 type  2   force =     2.88966283    5.54235977   -2.90369467
     atom    3 type  2   force =    -2.88966283    5.54235977    2.90369467
     atom    4 type  2   force =    -6.59294199    0.23091558   -0.83788641
     atom    5 type  2   force =    -3.16727068   -5.50386217   -0.82165037
     atom    6 type  2   force =     3.16727068   -5.50386217    0.82165037
     atom    7 type  1   force =     1.87994915    0.56732896    2.83112009
     atom    8 type  1   force =     3.10499392   -0.19619071   -1.49875066
     atom    9 type  1   force =     0.12913966    0.77000740   -3.32618923
     atom   10 type  1   force =     1.71548513    3.00677955    0.23172785
     atom   11 type  1   force =    -1.71548513    3.00677955   -0.23172785
     atom   12 type  1   force =    -0.12913966    0.77000740    3.32618923
     atom   13 type  1   force =    -1.87994915    0.56732896   -2.83112009
     atom   14 type  1   force =    -3.10499392   -0.19619071    1.49875066
     atom   15 type  1   force =    -0.87277985   -1.95420998   -2.70622577
     atom   16 type  1   force =    -1.63659380   -2.46312841    1.78394416
     atom   17 type  1   force =     0.87277985   -1.95420998    2.70622577
     atom   18 type  1   force =     1.63659380   -2.46312841   -1.78394416
     The local contribution  to forces
     atom    1 type  2   force =    -6.53146836   -0.20130338   -0.82106581
     atom    2 type  2   force =    -2.87816755   -5.49856228    2.87493038
     atom    3 type  2   force =     2.87821579   -5.49855664   -2.87489009
     atom    4 type  2   force =     6.53149966   -0.20128413    0.82106396
     atom    5 type  2   force =     3.11966532    5.44270969    0.80332262
     atom    6 type  2   force =    -3.11964966    5.44265880   -0.80324783
     atom    7 type  1   force =    -1.87716872   -0.56384375   -2.84058975
     atom    8 type  1   force =    -3.10742218    0.19966870    1.50922804
     atom    9 type  1   force =    -0.12876989   -0.76418304    3.33098159
     atom   10 type  1   force =    -1.71844053   -3.01218066   -0.24198998
     atom   11 type  1   force =     1.71843938   -3.01217995    0.24198975
     atom   12 type  1   force =     0.12876977   -0.76418300   -3.33098361
     atom   13 type  1   force =     1.87716809   -0.56384363    2.84058853
     atom   14 type  1   force =     3.10742024    0.19966810   -1.50922694
     atom   15 type  1   force =     0.87019919    1.95304650    2.71845555
     atom   16 type  1   force =     1.63907412    2.46489326   -1.79548149
     atom   17 type  1   force =    -0.87019983    1.95304750   -2.71845816
     atom   18 type  1   force =    -1.63907423    2.46489374    1.79548142
     The core correction contribution to forces
     atom    1 type  2   force =     0.00000000    0.00000000    0.00000000
     atom    2 type  2   force =     0.00000000    0.00000000    0.00000000
     atom    3 type  2   force =     0.00000000    0.00000000    0.00000000
     atom    4 type  2   force =     0.00000000    0.00000000    0.00000000
     atom    5 type  2   force =     0.00000000    0.00000000    0.00000000
     atom    6 type  2   force =     0.00000000    0.00000000    0.00000000
     atom    7 type  1   force =     0.00000000    0.00000000    0.00000000
     atom    8 type  1   force =     0.00000000    0.00000000    0.00000000
     atom    9 type  1   force =     0.00000000    0.00000000    0.00000000
     atom   10 type  1   force =     0.00000000    0.00000000    0.00000000
     atom   11 type  1   force =     0.00000000    0.00000000    0.00000000
     atom   12 type  1   force =     0.00000000    0.00000000    0.00000000
     atom   13 type  1   force =     0.00000000    0.00000000    0.00000000
     atom   14 type  1   force =     0.00000000    0.00000000    0.00000000
     atom   15 type  1   force =     0.00000000    0.00000000    0.00000000
     atom   16 type  1   force =     0.00000000    0.00000000    0.00000000
     atom   17 type  1   force =     0.00000000    0.00000000    0.00000000
     atom   18 type  1   force =     0.00000000    0.00000000    0.00000000
     The Hubbard contrib.    to forces
     atom    1 type  2   force =     0.00000000    0.00000000    0.00000000
     atom    2 type  2   force =     0.00000000    0.00000000    0.00000000
     atom    3 type  2   force =     0.00000000    0.00000000    0.00000000
     atom    4 type  2   force =     0.00000000    0.00000000    0.00000000
     atom    5 type  2   force =     0.00000000    0.00000000    0.00000000
     atom    6 type  2   force =     0.00000000    0.00000000    0.00000000
     atom    7 type  1   force =     0.00000000    0.00000000    0.00000000
     atom    8 type  1   force =     0.00000000    0.00000000    0.00000000
     atom    9 type  1   force =     0.00000000    0.00000000    0.00000000
     atom   10 type  1   force =     0.00000000    0.00000000    0.00000000
     atom   11 type  1   force =     0.00000000    0.00000000    0.00000000
     atom   12 type  1   force =     0.00000000    0.00000000    0.00000000
     atom   13 type  1   force =     0.00000000    0.00000000    0.00000000
     atom   14 type  1   force =     0.00000000    0.00000000    0.00000000
     atom   15 type  1   force =     0.00000000    0.00000000    0.00000000
     atom   16 type  1   force =     0.00000000    0.00000000    0.00000000
     atom   17 type  1   force =     0.00000000    0.00000000    0.00000000
     atom   18 type  1   force =     0.00000000    0.00000000    0.00000000
     The SCF correction term to forces
     atom    1 type  2   force =     0.00000103    0.00000133    0.00000001
     atom    2 type  2   force =    -0.00000057    0.00000110    0.00000001
     atom    3 type  2   force =     0.00000055    0.00000110   -0.00000000
     atom    4 type  2   force =    -0.00000103    0.00000137   -0.00000000
     atom    5 type  2   force =    -0.00000124   -0.00000156   -0.00000037
     atom    6 type  2   force =     0.00000126   -0.00000156    0.00000037
     atom    7 type  1   force =     0.00000010    0.00000005    0.00000003
     atom    8 type  1   force =     0.00000011    0.00000005    0.00000001
     atom    9 type  1   force =     0.00000003    0.00000011    0.00000019
     atom   10 type  1   force =    -0.00000014   -0.00000017   -0.00000006
     atom   11 type  1   force =     0.00000014   -0.00000017    0.00000006
     atom   12 type  1   force =    -0.00000004    0.00000011   -0.00000020
     atom   13 type  1   force =    -0.00000010    0.00000005   -0.00000003
     atom   14 type  1   force =    -0.00000011    0.00000005   -0.00000001
     atom   15 type  1   force =    -0.00000010   -0.00000015   -0.00000006
     atom   16 type  1   force =    -0.00000009   -0.00000016   -0.00000001
     atom   17 type  1   force =     0.00000010   -0.00000015    0.00000006
     atom   18 type  1   force =     0.00000008   -0.00000016    0.00000001

     Dispersion contribution to forces:
     atom    1 type  2   force =     0.00093027    0.00027848    0.00056150
     atom    2 type  2   force =     0.00017787    0.00094509   -0.00125539
     atom    3 type  2   force =    -0.00017787    0.00094509    0.00125539
     atom    4 type  2   force =    -0.00093027    0.00027848   -0.00056150
     atom    5 type  2   force =    -0.00066641   -0.00101640   -0.00012125
     atom    6 type  2   force =     0.00066641   -0.00101640    0.00012125
     atom    7 type  1   force =    -0.00121809    0.00034290    0.00063484
     atom    8 type  1   force =    -0.00019738   -0.00020585   -0.00087339
     atom    9 type  1   force =    -0.00089332   -0.00133120   -0.00031500
     atom   10 type  1   force =     0.00020389    0.00006338    0.00089181
     atom   11 type  1   force =    -0.00020389    0.00006338   -0.00089181
     atom   12 type  1   force =     0.00089332   -0.00133120    0.00031500
     atom   13 type  1   force =     0.00121809    0.00034290   -0.00063484
     atom   14 type  1   force =     0.00019738   -0.00020585    0.00087339
     atom   15 type  1   force =     0.00044403    0.00058576   -0.00069829
     atom   16 type  1   force =     0.00008529    0.00033783    0.00086956
     atom   17 type  1   force =    -0.00044403    0.00058576    0.00069829
     atom   18 type  1   force =    -0.00008529    0.00033783   -0.00086956

     Total force =     0.082647     Total SCF correction =     0.000004

     Total Dispersion Force =     0.005199

     Writing output data file ./temp.save/

     init_run     :     12.76s CPU      2.80s WALL (       1 calls)
     electrons    :    316.82s CPU     54.08s WALL (       1 calls)
     forces       :      3.16s CPU      0.50s WALL (       1 calls)

     Called by init_run:
     wfcinit      :      9.74s CPU      2.01s WALL (       1 calls)
     wfcinit:atom :      0.21s CPU      0.06s WALL (       1 calls)
     wfcinit:wfcr :      8.68s CPU      1.70s WALL (       1 calls)
     potinit      :      2.38s CPU      0.44s WALL (       1 calls)
     hinit0       :      0.47s CPU      0.17s WALL (       1 calls)

     Called by electrons:
     c_bands      :    252.57s CPU     42.87s WALL (      14 calls)
     sum_band     :     21.93s CPU      3.64s WALL (      14 calls)
     v_of_rho     :     32.72s CPU      5.70s WALL (      15 calls)
     v_h          :      1.93s CPU      0.31s WALL (      15 calls)
     v_xc         :     30.79s CPU      5.39s WALL (      15 calls)
     mix_rho      :     10.00s CPU      1.92s WALL (      14 calls)

     Called by c_bands:
     init_us_2    :      0.36s CPU      0.06s WALL (      29 calls)
     rcgdiagg     :    218.06s CPU     36.95s WALL (      14 calls)
     wfcrot       :     42.97s CPU      7.59s WALL (      14 calls)

     Called by sum_band:
     sum_band:wei :      0.00s CPU      0.00s WALL (      14 calls)
     sum_band:loo :     18.59s CPU      3.13s WALL (      14 calls)
     sum_band:buf :      0.00s CPU      0.00s WALL (      14 calls)
     sum_band:ini :      0.16s CPU      0.03s WALL (      14 calls)

     Called by *cgdiagg:
     h_psi        :    243.28s CPU     41.48s WALL (     892 calls)

     Called by h_psi:
     h_psi:calbec :      2.43s CPU      0.42s WALL (     892 calls)
     vloc_psi     :    239.01s CPU     40.73s WALL (     892 calls)
     add_vuspsi   :      1.21s CPU      0.19s WALL (     892 calls)
     hs_1psi      :    202.63s CPU     34.27s WALL (     878 calls)
     s_1psi       :      1.37s CPU      0.27s WALL (     878 calls)

     General routines
     calbec       :      3.58s CPU      0.65s WALL (    1774 calls)
     fft          :      9.18s CPU      1.32s WALL (     121 calls)
     ffts         :      1.17s CPU      0.16s WALL (      14 calls)
     fftw         :    224.44s CPU     37.81s WALL (    2268 calls)

     Parallel routines

     PWSCF        :   5m33.08s CPU     57.63s WALL


   This run was terminated on:  11:52:54  28Oct2021            

=------------------------------------------------------------------------------=
   JOB DONE.
=------------------------------------------------------------------------------=
