
     Program PWSCF v.6.7MaX starts on 28Oct2021 at 11:46:47 

     This program is part of the open-source Quantum ESPRESSO suite
     for quantum simulation of materials; please cite
         "P. Giannozzi et al., J. Phys.:Condens. Matter 21 395502 (2009);
         "P. Giannozzi et al., J. Phys.:Condens. Matter 29 465901 (2017);
          URL http://www.quantum-espresso.org", 
     in publications or presentations arising from this work. More details at
     http://www.quantum-espresso.org/quote

     Parallel version (MPI & OpenMP), running on       8 processor cores
     Number of MPI processes:                 1
     Threads/MPI process:                     8

     MPI processes distributed on     1 nodes
     Reading input from md.in
Warning: card &CELL ignored
Warning: card / ignored

     Current dimensions of program PWSCF are:
     Max number of different atomic species (ntypx) = 10
     Max number of k-points (npk) =  40000
     Max angular momentum in pseudopotentials (lmaxx) =  3

     -------------------------------------------------
     Parameters for Dispersion (Grimme-D2) Correction:
     -------------------------------------------------
       atom      VdW radius       C_6     

        H          1.892          4.857
        C          2.744         60.710

     gamma-point specific algorithms are used

     Subspace diagonalization in iterative solution of the eigenvalue problem:
     a serial algorithm will be used


     G-vector sticks info
     --------------------
     sticks:   dense  smooth     PW     G-vecs:    dense   smooth      PW
     Sum       15329   15329   3833              1429635  1429635  178925



     bravais-lattice index     =            0
     lattice parameter (alat)  =      28.3459  a.u.
     unit-cell volume          =   22775.6289 (a.u.)^3
     number of atoms/cell      =           18
     number of atomic types    =            2
     number of electrons       =        36.00
     number of Kohn-Sham states=           21
     kinetic-energy cutoff     =      60.0000  Ry
     charge density cutoff     =     240.0000  Ry
     scf convergence threshold =      1.0E-10
     mixing beta               =       0.5000
     number of iterations used =            8  plain     mixing
     Exchange-correlation=  SLA  PW   PBX  PBC
                           (   1   4   3   4   0   0   0)

     celldm(1)=  28.345892  celldm(2)=   0.000000  celldm(3)=   0.000000
     celldm(4)=   0.000000  celldm(5)=   0.000000  celldm(6)=   0.000000

     crystal axes: (cart. coord. in units of alat)
               a(1) = (   1.000000   0.000000   0.000000 )  
               a(2) = (   0.000000   1.000000   0.000000 )  
               a(3) = (   0.000000   0.000000   1.000000 )  

     reciprocal axes: (cart. coord. in units 2 pi/alat)
               b(1) = (  1.000000  0.000000  0.000000 )  
               b(2) = (  0.000000  1.000000  0.000000 )  
               b(3) = (  0.000000  0.000000  1.000000 )  


     PseudoPot. # 1 for H  read from file:
     /Users/rca/source_installs/espresso/pseudo/H.pbe-tm-new-gipaw-dc.UPF
     MD5 check sum: 0e5abdcbf773fd5bd1c97111569d22ab
     Pseudo is Norm-conserving, Zval =  1.0
     Generated by new atomic code, or converted to UPF format
     Using radial grid of 1261 points,  0 beta functions with: 

     PseudoPot. # 2 for C  read from file:
     /Users/rca/source_installs/espresso/pseudo/C.pbe-tm-new-gipaw-dc.UPF
     MD5 check sum: c9fa938d11269a3b0a4c160d8754c0f1
     Pseudo is Norm-conserving, Zval =  4.0
     Generated by new atomic code, or converted to UPF format
     Using radial grid of 1441 points,  1 beta functions with: 
                l(1) =   0

     atomic species   valence    mass     pseudopotential
        H              1.00     1.00790     H ( 1.00)
        C              4.00    12.01070     C ( 1.00)

     No symmetry found


                                    s                        frac. trans.

      isym =  1     identity                                     

 cryst.   s( 1) = (     1          0          0      )
                  (     0          1          0      )
                  (     0          0          1      )

 cart.    s( 1) = (  1.0000000  0.0000000  0.0000000 )
                  (  0.0000000  1.0000000  0.0000000 )
                  (  0.0000000  0.0000000  1.0000000 )


   Cartesian axes

     site n.     atom                  positions (alat units)
         1           C   tau(   1) = (   0.5961670   0.5002801   0.4829975  )
         2           C   tau(   2) = (   0.5478358   0.5834230   0.5170010  )
         3           C   tau(   3) = (   0.5483266   0.4168610   0.5170024  )
         4           C   tau(   4) = (   0.4516727   0.5831419   0.4829983  )
         5           C   tau(   5) = (   0.4038351   0.4997172   0.5170010  )
         6           C   tau(   6) = (   0.4521631   0.4165798   0.4829997  )
         7           H   tau(   7) = (   0.5961684   0.5002852   0.4103355  )
         8           H   tau(   8) = (   0.6646771   0.5004822   0.5072211  )
         9           H   tau(   9) = (   0.5478383   0.5834181   0.5896684  )
        10           H   tau(  10) = (   0.5819198   0.6428563   0.4927828  )
        11           H   tau(  11) = (   0.5827573   0.3576291   0.4927798  )
        12           H   tau(  12) = (   0.5483248   0.4168557   0.5896645  )
        13           H   tau(  13) = (   0.4172416   0.6423737   0.5072209  )
        14           H   tau(  14) = (   0.4516773   0.5831415   0.4103341  )
        15           H   tau(  15) = (   0.4038305   0.4997176   0.5896652  )
        16           H   tau(  16) = (   0.3353250   0.4995152   0.4927774  )
        17           H   tau(  17) = (   0.4521595   0.4165756   0.4103334  )
        18           H   tau(  18) = (   0.4180791   0.3571465   0.5072179  )

   Crystallographic axes

     site n.     atom                  positions (cryst. coord.)
         1           C   tau(   1) = (  0.5961670  0.5002801  0.4829975  )
         2           C   tau(   2) = (  0.5478358  0.5834230  0.5170010  )
         3           C   tau(   3) = (  0.5483266  0.4168610  0.5170024  )
         4           C   tau(   4) = (  0.4516727  0.5831419  0.4829983  )
         5           C   tau(   5) = (  0.4038351  0.4997172  0.5170010  )
         6           C   tau(   6) = (  0.4521631  0.4165798  0.4829997  )
         7           H   tau(   7) = (  0.5961684  0.5002852  0.4103355  )
         8           H   tau(   8) = (  0.6646771  0.5004822  0.5072211  )
         9           H   tau(   9) = (  0.5478383  0.5834181  0.5896684  )
        10           H   tau(  10) = (  0.5819198  0.6428563  0.4927828  )
        11           H   tau(  11) = (  0.5827573  0.3576291  0.4927798  )
        12           H   tau(  12) = (  0.5483248  0.4168557  0.5896645  )
        13           H   tau(  13) = (  0.4172416  0.6423737  0.5072209  )
        14           H   tau(  14) = (  0.4516773  0.5831415  0.4103341  )
        15           H   tau(  15) = (  0.4038305  0.4997176  0.5896652  )
        16           H   tau(  16) = (  0.3353250  0.4995152  0.4927774  )
        17           H   tau(  17) = (  0.4521595  0.4165756  0.4103334  )
        18           H   tau(  18) = (  0.4180791  0.3571465  0.5072179  )

     number of k points=     1
                       cart. coord. in units 2pi/alat
        k(    1) = (   0.0000000   0.0000000   0.0000000), wk =   2.0000000

                       cryst. coord.
        k(    1) = (   0.0000000   0.0000000   0.0000000), wk =   2.0000000

     Dense  grid:   714818 G-vectors     FFT dimensions: ( 144, 144, 144)

     Dynamical RAM for                 wfc:      28.64 MB

     Dynamical RAM for     wfc (w. buffer):      28.64 MB

     Dynamical RAM for           str. fact:      21.81 MB

     Dynamical RAM for           local pot:       0.00 MB

     Dynamical RAM for          nlocal pot:       8.18 MB

     Dynamical RAM for                qrad:       0.02 MB

     Dynamical RAM for          rho,v,vnew:     101.07 MB

     Dynamical RAM for               rhoin:      33.69 MB

     Dynamical RAM for            rho*nmix:     174.52 MB

     Dynamical RAM for           G-vectors:      46.36 MB

     Dynamical RAM for          h,s,v(r/c):       0.01 MB

     Dynamical RAM for          <psi|beta>:       0.00 MB

     Dynamical RAM for      wfcinit/wfcrot:     196.50 MB

     Estimated static dynamical RAM per process >     560.91 MB

     Estimated max dynamical RAM per process >     757.41 MB

     Initial potential from superposition of free atoms

     starting charge   29.99975, renormalised to   36.00000

     negative rho (up, down):  8.583E-04 0.000E+00
     Starting wfcs are   72 randomized atomic wfcs

     total cpu time spent up to now is        2.7 secs

     Self-consistent Calculation

     iteration #  1     ecut=    60.00 Ry     beta= 0.50
     CG style diagonalization
     ethr =  1.00E-02,  avg # of iterations =  3.0

     negative rho (up, down):  3.259E-04 0.000E+00

     total cpu time spent up to now is        6.1 secs

     total energy              =     -81.55323783 Ry
     estimated scf accuracy    <       3.94977290 Ry

     iteration #  2     ecut=    60.00 Ry     beta= 0.50
     CG style diagonalization
     ethr =  1.00E-02,  avg # of iterations =  3.8

     negative rho (up, down):  1.514E-04 0.000E+00

     total cpu time spent up to now is        9.6 secs

     total energy              =     -82.55137126 Ry
     estimated scf accuracy    <       0.63072380 Ry

     iteration #  3     ecut=    60.00 Ry     beta= 0.50
     CG style diagonalization
     ethr =  1.75E-03,  avg # of iterations =  3.7

     negative rho (up, down):  7.148E-06 0.000E+00

     total cpu time spent up to now is       13.1 secs

     total energy              =     -82.63891742 Ry
     estimated scf accuracy    <       0.04994132 Ry

     iteration #  4     ecut=    60.00 Ry     beta= 0.50
     CG style diagonalization
     ethr =  1.39E-04,  avg # of iterations =  4.2

     negative rho (up, down):  6.351E-06 0.000E+00

     total cpu time spent up to now is       16.9 secs

     total energy              =     -82.64803841 Ry
     estimated scf accuracy    <       0.00980701 Ry

     iteration #  5     ecut=    60.00 Ry     beta= 0.50
     CG style diagonalization
     ethr =  2.72E-05,  avg # of iterations =  3.1

     negative rho (up, down):  3.399E-08 0.000E+00

     total cpu time spent up to now is       20.0 secs

     total energy              =     -82.64570409 Ry
     estimated scf accuracy    <       0.00471329 Ry

     iteration #  6     ecut=    60.00 Ry     beta= 0.50
     CG style diagonalization
     ethr =  1.31E-05,  avg # of iterations =  4.0

     negative rho (up, down):  2.736E-07 0.000E+00

     total cpu time spent up to now is       23.7 secs

     total energy              =     -82.64718611 Ry
     estimated scf accuracy    <       0.00093307 Ry

     iteration #  7     ecut=    60.00 Ry     beta= 0.50
     CG style diagonalization
     ethr =  2.59E-06,  avg # of iterations =  3.6

     total cpu time spent up to now is       27.3 secs

     total energy              =     -82.64725806 Ry
     estimated scf accuracy    <       0.00012593 Ry

     iteration #  8     ecut=    60.00 Ry     beta= 0.50
     CG style diagonalization
     ethr =  3.50E-07,  avg # of iterations =  3.5

     total cpu time spent up to now is       31.0 secs

     total energy              =     -82.64726603 Ry
     estimated scf accuracy    <       0.00001504 Ry

     iteration #  9     ecut=    60.00 Ry     beta= 0.50
     CG style diagonalization
     ethr =  4.18E-08,  avg # of iterations =  3.8

     total cpu time spent up to now is       34.8 secs

     total energy              =     -82.64727033 Ry
     estimated scf accuracy    <       0.00000033 Ry

     iteration # 10     ecut=    60.00 Ry     beta= 0.50
     CG style diagonalization
     ethr =  9.20E-10,  avg # of iterations =  3.9

     total cpu time spent up to now is       38.7 secs

     total energy              =     -82.64727035 Ry
     estimated scf accuracy    <       0.00000029 Ry

     iteration # 11     ecut=    60.00 Ry     beta= 0.50
     CG style diagonalization
     ethr =  8.00E-10,  avg # of iterations =  3.0

     total cpu time spent up to now is       41.8 secs

     total energy              =     -82.64727033 Ry
     estimated scf accuracy    <       0.00000007 Ry

     iteration # 12     ecut=    60.00 Ry     beta= 0.50
     CG style diagonalization
     ethr =  2.03E-10,  avg # of iterations =  3.7

     total cpu time spent up to now is       45.8 secs

     total energy              =     -82.64727035 Ry
     estimated scf accuracy    <          1.5E-09 Ry

     iteration # 13     ecut=    60.00 Ry     beta= 0.50
     CG style diagonalization
     ethr =  4.06E-12,  avg # of iterations =  3.9

     total cpu time spent up to now is       49.6 secs

     total energy              =     -82.64727035 Ry
     estimated scf accuracy    <          1.2E-09 Ry

     iteration # 14     ecut=    60.00 Ry     beta= 0.50
     CG style diagonalization
     ethr =  3.40E-12,  avg # of iterations =  3.7

     total cpu time spent up to now is       53.3 secs

     End of self-consistent calculation

          k = 0.0000 0.0000 0.0000 ( 89463 PWs)   bands (ev):

   -20.3003 -17.8664 -17.8663 -14.3881 -14.3878 -13.2592 -11.4299 -10.3907
   -10.3906 -10.3156  -8.7300  -8.7300  -8.5387  -7.9174  -7.9169  -7.4458
    -6.5963  -6.5959  -0.3390   0.2573   0.2577

     occupation numbers 
     1.0000   1.0000   1.0000   1.0000   1.0000   1.0000   1.0000   1.0000
     1.0000   1.0000   1.0000   1.0000   1.0000   1.0000   1.0000   1.0000
     1.0000   1.0000   0.0000   0.0000   0.0000

     highest occupied, lowest unoccupied level (ev):    -6.5959   -0.3390

!    total energy              =     -82.64727035 Ry
     estimated scf accuracy    <          8.8E-11 Ry

     The total energy is the sum of the following terms:
     one-electron contribution =    -439.32213566 Ry
     hartree contribution      =     224.10119963 Ry
     xc contribution           =     -29.84652197 Ry
     ewald contribution        =     162.45181330 Ry
     Dispersion Correction     =      -0.03162566 Ry

     convergence has been achieved in  14 iterations

     Forces acting on atoms (cartesian axes, Ry/au):

     atom    1 type  2   force =    -0.00204779    0.00008861    0.02935762
     atom    2 type  2   force =    -0.00095828   -0.00168912   -0.02920098
     atom    3 type  2   force =    -0.00097314    0.00164121   -0.02931663
     atom    4 type  2   force =     0.00098206   -0.00169381    0.02926974
     atom    5 type  2   force =     0.00199562    0.00002428   -0.02929642
     atom    6 type  2   force =     0.00100241    0.00161557    0.02920901
     atom    7 type  1   force =     0.00423084   -0.00000472   -0.01477982
     atom    8 type  1   force =     0.01572972    0.00005026   -0.00272165
     atom    9 type  1   force =     0.00209997    0.00368025    0.01467990
     atom   10 type  1   force =     0.00782048    0.01364162    0.00272883
     atom   11 type  1   force =     0.00789250   -0.01359477    0.00273211
     atom   12 type  1   force =     0.00213635   -0.00364509    0.01477602
     atom   13 type  1   force =    -0.00789630    0.01358414   -0.00273919
     atom   14 type  1   force =    -0.00214221    0.00366223   -0.01473948
     atom   15 type  1   force =    -0.00422674   -0.00000955    0.01473867
     atom   16 type  1   force =    -0.01573348   -0.00004656    0.00272093
     atom   17 type  1   force =    -0.00209508   -0.00366090   -0.01470244
     atom   18 type  1   force =    -0.00781694   -0.01364363   -0.00271622
     The non-local contrib.  to forces
     atom    1 type  2   force =    -0.05889319   -0.00002092    0.06736510
     atom    2 type  2   force =    -0.02922564   -0.05092705   -0.06711963
     atom    3 type  2   force =    -0.02951388    0.05071977   -0.06729048
     atom    4 type  2   force =     0.02951378   -0.05077341    0.06721947
     atom    5 type  2   force =     0.05882703    0.00019602   -0.06725400
     atom    6 type  2   force =     0.02929953    0.05081711    0.06712263
     atom    7 type  1   force =     0.00000000    0.00000000    0.00000000
     atom    8 type  1   force =     0.00000000    0.00000000    0.00000000
     atom    9 type  1   force =     0.00000000    0.00000000    0.00000000
     atom   10 type  1   force =     0.00000000    0.00000000    0.00000000
     atom   11 type  1   force =     0.00000000    0.00000000    0.00000000
     atom   12 type  1   force =     0.00000000    0.00000000    0.00000000
     atom   13 type  1   force =     0.00000000    0.00000000    0.00000000
     atom   14 type  1   force =     0.00000000    0.00000000    0.00000000
     atom   15 type  1   force =     0.00000000    0.00000000    0.00000000
     atom   16 type  1   force =     0.00000000    0.00000000    0.00000000
     atom   17 type  1   force =     0.00000000    0.00000000    0.00000000
     atom   18 type  1   force =     0.00000000    0.00000000    0.00000000
     The ionic contribution  to forces
     atom    1 type  2   force =     6.70852617    0.01985776   -2.14005309
     atom    2 type  2   force =     3.34109454    5.82166030    2.14007163
     atom    3 type  2   force =     3.37514153   -5.80207877    2.14012191
     atom    4 type  2   force =    -3.37537185    5.80221563   -2.14004588
     atom    5 type  2   force =    -6.70850711   -0.01951153    2.14010825
     atom    6 type  2   force =    -3.34081850   -5.82179576   -2.14013253
     atom    7 type  1   force =     1.15858195    0.00354808   -3.31936282
     atom    8 type  1   force =     3.48685290    0.01030037    0.68674524
     atom    9 type  1   force =     0.57727650    1.00537004    3.31909200
     atom   10 type  1   force =     1.73942686    3.02758942   -0.68654017
     atom   11 type  1   force =     1.75712100   -3.01740958   -0.68669797
     atom   12 type  1   force =     0.58306089   -1.00229641    3.31935066
     atom   13 type  1   force =    -1.75712527    3.01735622    0.68669003
     atom   14 type  1   force =    -0.58298024    1.00214762   -3.31926618
     atom   15 type  1   force =    -1.15866193   -0.00338993    3.31924054
     atom   16 type  1   force =    -3.48688014   -0.01030038   -0.68676809
     atom   17 type  1   force =    -0.57729670   -1.00563414   -3.31912244
     atom   18 type  1   force =    -1.73944060   -3.02762895    0.68656891
     The local contribution  to forces
     atom    1 type  2   force =    -6.65233533   -0.01974983    2.10328780
     atom    2 type  2   force =    -3.31315255   -5.77299033   -2.10339498
     atom    3 type  2   force =    -3.34692965    5.75356613   -2.10339023
     atom    4 type  2   force =     3.34716913   -5.75370199    2.10333834
     atom    5 type  2   force =     6.65233008    0.01934195   -2.10339277
     atom    6 type  2   force =     3.31284693    5.77316209    2.10346081
     atom    7 type  1   force =    -1.15251132   -0.00354754    3.30491859
     atom    8 type  1   force =    -3.47102809   -0.01024967   -0.69029030
     atom    9 type  1   force =    -0.57426131   -1.00009366   -3.30474795
     atom   10 type  1   force =    -1.73155903   -3.01386542    0.69009257
     atom   11 type  1   force =    -1.74918068    3.00373236    0.69025342
     atom   12 type  1   force =    -0.57999981    0.99706078   -3.30491016
     atom   13 type  1   force =     1.74918127   -3.00368995   -0.69025277
     atom   14 type  1   force =     0.57991315   -0.99689471    3.30486236
     atom   15 type  1   force =     1.15259546    0.00337508   -3.30483752
     atom   16 type  1   force =     3.47105135    0.01025376    0.69031245
     atom   17 type  1   force =     0.57428654    1.00037727    3.30475552
     atom   18 type  1   force =     1.73157631    3.01390255   -0.69010851
     The core correction contribution to forces
     atom    1 type  2   force =     0.00000000    0.00000000    0.00000000
     atom    2 type  2   force =     0.00000000    0.00000000    0.00000000
     atom    3 type  2   force =     0.00000000    0.00000000    0.00000000
     atom    4 type  2   force =     0.00000000    0.00000000    0.00000000
     atom    5 type  2   force =     0.00000000    0.00000000    0.00000000
     atom    6 type  2   force =     0.00000000    0.00000000    0.00000000
     atom    7 type  1   force =     0.00000000    0.00000000    0.00000000
     atom    8 type  1   force =     0.00000000    0.00000000    0.00000000
     atom    9 type  1   force =     0.00000000    0.00000000    0.00000000
     atom   10 type  1   force =     0.00000000    0.00000000    0.00000000
     atom   11 type  1   force =     0.00000000    0.00000000    0.00000000
     atom   12 type  1   force =     0.00000000    0.00000000    0.00000000
     atom   13 type  1   force =     0.00000000    0.00000000    0.00000000
     atom   14 type  1   force =     0.00000000    0.00000000    0.00000000
     atom   15 type  1   force =     0.00000000    0.00000000    0.00000000
     atom   16 type  1   force =     0.00000000    0.00000000    0.00000000
     atom   17 type  1   force =     0.00000000    0.00000000    0.00000000
     atom   18 type  1   force =     0.00000000    0.00000000    0.00000000
     The Hubbard contrib.    to forces
     atom    1 type  2   force =     0.00000000    0.00000000    0.00000000
     atom    2 type  2   force =     0.00000000    0.00000000    0.00000000
     atom    3 type  2   force =     0.00000000    0.00000000    0.00000000
     atom    4 type  2   force =     0.00000000    0.00000000    0.00000000
     atom    5 type  2   force =     0.00000000    0.00000000    0.00000000
     atom    6 type  2   force =     0.00000000    0.00000000    0.00000000
     atom    7 type  1   force =     0.00000000    0.00000000    0.00000000
     atom    8 type  1   force =     0.00000000    0.00000000    0.00000000
     atom    9 type  1   force =     0.00000000    0.00000000    0.00000000
     atom   10 type  1   force =     0.00000000    0.00000000    0.00000000
     atom   11 type  1   force =     0.00000000    0.00000000    0.00000000
     atom   12 type  1   force =     0.00000000    0.00000000    0.00000000
     atom   13 type  1   force =     0.00000000    0.00000000    0.00000000
     atom   14 type  1   force =     0.00000000    0.00000000    0.00000000
     atom   15 type  1   force =     0.00000000    0.00000000    0.00000000
     atom   16 type  1   force =     0.00000000    0.00000000    0.00000000
     atom   17 type  1   force =     0.00000000    0.00000000    0.00000000
     atom   18 type  1   force =     0.00000000    0.00000000    0.00000000
     The SCF correction term to forces
     atom    1 type  2   force =     0.00000407    0.00000003    0.00000045
     atom    2 type  2   force =     0.00000203    0.00000358   -0.00000044
     atom    3 type  2   force =     0.00000204   -0.00000357   -0.00000044
     atom    4 type  2   force =    -0.00000202    0.00000357    0.00000044
     atom    5 type  2   force =    -0.00000407   -0.00000002   -0.00000045
     atom    6 type  2   force =    -0.00000202   -0.00000358    0.00000044
     atom    7 type  1   force =     0.00000041    0.00000000    0.00000047
     atom    8 type  1   force =    -0.00000037   -0.00000000   -0.00000026
     atom    9 type  1   force =     0.00000020    0.00000036   -0.00000048
     atom   10 type  1   force =    -0.00000019   -0.00000033    0.00000027
     atom   11 type  1   force =    -0.00000019    0.00000032    0.00000027
     atom   12 type  1   force =     0.00000020   -0.00000035   -0.00000048
     atom   13 type  1   force =     0.00000019   -0.00000032   -0.00000027
     atom   14 type  1   force =    -0.00000020    0.00000036    0.00000048
     atom   15 type  1   force =    -0.00000041   -0.00000000   -0.00000047
     atom   16 type  1   force =     0.00000037    0.00000000    0.00000026
     atom   17 type  1   force =    -0.00000020   -0.00000036    0.00000048
     atom   18 type  1   force =     0.00000019    0.00000032   -0.00000027

     Dispersion contribution to forces:
     atom    1 type  2   force =     0.00065050    0.00000159   -0.00124264
     atom    2 type  2   force =     0.00032336    0.00056439    0.00124243
     atom    3 type  2   force =     0.00032683   -0.00056233    0.00124260
     atom    4 type  2   force =    -0.00032697    0.00056240   -0.00124265
     atom    5 type  2   force =    -0.00065031   -0.00000211    0.00124253
     atom    6 type  2   force =    -0.00032352   -0.00056427   -0.00124236
     atom    7 type  1   force =    -0.00184019   -0.00000524   -0.00033607
     atom    8 type  1   force =    -0.00009472   -0.00000042    0.00082366
     atom    9 type  1   force =    -0.00091542   -0.00159647    0.00033631
     atom   10 type  1   force =    -0.00004715   -0.00008203   -0.00082385
     atom   11 type  1   force =    -0.00004763    0.00008216   -0.00082362
     atom   12 type  1   force =    -0.00092493    0.00159091    0.00033598
     atom   13 type  1   force =     0.00004751   -0.00008178    0.00082380
     atom   14 type  1   force =     0.00092508   -0.00159102   -0.00033615
     atom   15 type  1   force =     0.00184015    0.00000533    0.00033611
     atom   16 type  1   force =     0.00009495    0.00000008   -0.00082370
     atom   17 type  1   force =     0.00091529    0.00159634   -0.00033601
     atom   18 type  1   force =     0.00004717    0.00008247    0.00082364

     Total force =     0.090020     Total SCF correction =     0.000010

     Total Dispersion Force =     0.006076

     Writing output data file ./temp.save/

     init_run     :     13.87s CPU      2.55s WALL (       1 calls)
     electrons    :    294.51s CPU     50.60s WALL (       1 calls)
     forces       :      2.95s CPU      0.53s WALL (       1 calls)

     Called by init_run:
     wfcinit      :     10.45s CPU      1.76s WALL (       1 calls)
     wfcinit:atom :      0.23s CPU      0.05s WALL (       1 calls)
     wfcinit:wfcr :      9.14s CPU      1.46s WALL (       1 calls)
     potinit      :      2.72s CPU      0.44s WALL (       1 calls)
     hinit0       :      0.54s CPU      0.18s WALL (       1 calls)

     Called by electrons:
     c_bands      :    230.52s CPU     39.14s WALL (      14 calls)
     sum_band     :     21.72s CPU      3.75s WALL (      14 calls)
     v_of_rho     :     33.15s CPU      5.87s WALL (      15 calls)
     v_h          :      2.08s CPU      0.35s WALL (      15 calls)
     v_xc         :     31.07s CPU      5.52s WALL (      15 calls)
     mix_rho      :      9.99s CPU      1.91s WALL (      14 calls)

     Called by c_bands:
     init_us_2    :      0.40s CPU      0.07s WALL (      29 calls)
     rcgdiagg     :    195.96s CPU     33.24s WALL (      14 calls)
     wfcrot       :     43.48s CPU      7.33s WALL (      14 calls)

     Called by sum_band:
     sum_band:wei :      0.00s CPU      0.00s WALL (      14 calls)
     sum_band:loo :     18.45s CPU      3.22s WALL (      14 calls)
     sum_band:buf :      0.00s CPU      0.00s WALL (      14 calls)
     sum_band:ini :      0.20s CPU      0.03s WALL (      14 calls)

     Called by *cgdiagg:
     h_psi        :    223.73s CPU     37.87s WALL (     810 calls)

     Called by h_psi:
     h_psi:calbec :      2.16s CPU      0.39s WALL (     810 calls)
     vloc_psi     :    219.86s CPU     37.17s WALL (     810 calls)
     add_vuspsi   :      1.14s CPU      0.18s WALL (     810 calls)
     hs_1psi      :    182.60s CPU     30.92s WALL (     796 calls)
     s_1psi       :      1.21s CPU      0.24s WALL (     796 calls)

     General routines
     calbec       :      3.17s CPU      0.59s WALL (    1610 calls)
     fft          :      9.71s CPU      1.47s WALL (     121 calls)
     ffts         :      1.19s CPU      0.17s WALL (      14 calls)
     fftw         :    206.54s CPU     34.70s WALL (    2104 calls)

     Parallel routines

     PWSCF        :   5m11.69s CPU     53.92s WALL


   This run was terminated on:  11:47:41  28Oct2021            

=------------------------------------------------------------------------------=
   JOB DONE.
=------------------------------------------------------------------------------=
