18
Lattice="14.99999999685098 0.0 0.0 0.0 14.99999999685098 0.0 0.0 0.0 14.99999999685098" Properties=species:S:1:pos:R:3:forces_eV_per_au:R:3:forces:R:3 energy_eV=-1124.4732994674766 energy=-1124.4732994674766 free_energy=-1124.4732994674766 pbc="T T T"
C        8.94250500       7.50420150       7.24496250      -0.05265079       0.00227825       0.75481470      -0.05265079       0.00227825       0.75481470
C        8.21753700       8.75134500       7.75501500      -0.02463837      -0.04342902      -0.75078732      -0.02463837      -0.04342902      -0.75078732
C        8.22489900       6.25291500       7.75503600      -0.02502043       0.04219720      -0.75376080      -0.02502043       0.04219720      -0.75376080
C        6.77509050       8.74712850       7.24497450       0.02524978      -0.04354960       0.75255521       0.02524978      -0.04354960       0.75255521
C        6.05752650       7.49575800       7.75501500       0.05130945       0.00062426      -0.75324118       0.05130945       0.00062426      -0.75324118
C        6.78244650       6.24869700       7.24499550       0.02577300       0.04153797       0.75099378       0.02577300       0.04153797       0.75099378
H        8.94252600       7.50427800       6.15503250       0.10877926      -0.00012136      -0.38000442       0.10877926      -0.00012136      -0.38000442
H        9.97015650       7.50723300       7.60831650       0.40442733       0.00129224      -0.06997643       0.40442733       0.00129224      -0.06997643
H        8.21757450       8.75127150       8.84502600       0.05399240       0.09462302       0.37743537       0.05399240       0.09462302       0.37743537
H        8.72879700       9.64284450       7.39174200       0.20107261       0.35074012       0.07016103       0.20107261       0.35074012       0.07016103
H        8.74135950       5.36443650       7.39169700       0.20292432      -0.34953556       0.07024537       0.20292432      -0.34953556       0.07024537
H        8.22487200       6.25283550       8.84496750       0.05492776      -0.09371902       0.37990672       0.05492776      -0.09371902       0.37990672
H        6.25862400       9.63560550       7.60831350      -0.20302202       0.34926225      -0.07042740      -0.20302202       0.34926225      -0.07042740
H        6.77515950       8.74712250       6.15501150      -0.05507843       0.09415971      -0.37896724      -0.05507843       0.09415971      -0.37896724
H        6.05745750       7.49576400       8.84497800      -0.10867385      -0.00024554       0.37894641      -0.10867385      -0.00024554       0.37894641
H        5.02987500       7.49272800       7.39166100      -0.40452400      -0.00119711       0.06995792      -0.40452400      -0.00119711       0.06995792
H        6.78239250       6.24863400       6.15500100      -0.05386667      -0.09412552      -0.37801490      -0.05386667      -0.09412552      -0.37801490
H        6.27118650       5.35719750       7.60826850      -0.20098159      -0.35079180      -0.06983682      -0.20098159      -0.35079180      -0.06983682
18
Lattice="14.99999999685098 0.0 0.0 0.0 14.99999999685098 0.0 0.0 0.0 14.99999999685098" Properties=species:S:1:pos:R:3:forces_eV_per_au:R:3:forces:R:3 energy_eV=-1124.5058023770487 energy=-1124.5058023770487 free_energy=-1124.5058023770487 pbc="T T T"
C        8.94142158       7.50424897       7.26049848       0.19434557       0.00139431      -0.47734896       0.19434557       0.00139431      -0.47734896
C        8.21703058       8.75045171       7.73956180       0.09526374       0.17136377       0.47695121       0.09526374       0.17136377       0.47695121
C        8.22438357       6.25378303       7.73952282       0.09752426      -0.16882660       0.47875766       0.09752426      -0.16882660       0.47875766
C        6.77561015       8.74623168       7.26046309      -0.09740779       0.16920019      -0.47779890      -0.09740779       0.16920019      -0.47779890
C        6.05858215       7.49577156       7.73951129      -0.19401622      -0.00180029       0.47645781      -0.19401622      -0.00180029       0.47645781
C        6.78297648       6.24955192       7.26045264      -0.09556893      -0.17079813      -0.47707796      -0.09556893      -0.17079813      -0.47707796
H        8.94476525       7.50427591       6.14721198       0.12969698       0.00033244       0.24274376       0.12969698       0.00033244       0.24274376
H        9.97848066       7.50725950       7.60687554       0.24788288       0.00094539      -0.01748170       0.24788288       0.00094539      -0.01748170
H        8.21868598       8.75321896       8.85279456       0.06443262       0.11311954      -0.24128209       0.06443262       0.11311954      -0.24128209
H        8.73293540       9.65006401       7.39318609       0.12371583       0.21578266       0.01768096       0.12371583       0.21578266       0.01768096
H        8.74553618       5.35724248       7.39314336       0.12558528      -0.21576852       0.01717857       0.12558528      -0.21576852       0.01717857
H        8.22600258       6.25090626       8.85278721       0.06540938      -0.11224922      -0.24216012       0.06540938      -0.11224922      -0.24216012
H        6.25444551       9.64279444       7.60686361      -0.12508006       0.21501981      -0.01767093      -0.12508006       0.21501981      -0.01767093
H        6.77402564       8.74906068       6.14721216      -0.06553871       0.11247394       0.24183462      -0.06553871       0.11247394       0.24183462
H        6.05522062       7.49575964       8.85277803      -0.12966356      -0.00038592      -0.24225962      -0.12966356      -0.00038592      -0.24225962
H        5.02154868       7.49270331       7.39310147      -0.24835957      -0.00074253       0.01745548      -0.24835957      -0.00074253       0.01745548
H        6.78128443       6.24669624       6.14722117      -0.06435934      -0.11270328       0.24125098      -0.06435934      -0.11270328       0.24125098
H        6.26705017       5.34997748       7.60683132      -0.12386212      -0.21635705      -0.01723128      -0.12386212      -0.21635705      -0.01723128
18
Lattice="14.99999999685098 0.0 0.0 0.0 14.99999999685098 0.0 0.0 0.0 14.99999999685098" Properties=species:S:1:pos:R:3:forces_eV_per_au:R:3:forces:R:3 energy_eV=-1124.5267682040894 energy=-1124.5267682040894 free_energy=-1124.5267682040894 pbc="T T T"
C        8.94413623       7.50427706       7.25585909       0.18774941       0.00082687      -0.07801858       0.18774941       0.00082687      -0.07801858
C        8.21836503       8.75285505       7.74420833       0.09304102       0.16420736       0.07761621       0.09304102       0.16420736       0.07761621
C        8.22575034       6.25141336       7.74418654       0.09504006      -0.16301000       0.07827081       0.09504006      -0.16301000       0.07827081
C        6.77424585       8.74860251       7.25580970      -0.09480172       0.16305859      -0.07810831      -0.09480172       0.16305859      -0.07810831
C        6.05586804       7.49574686       7.74414255      -0.18761828      -0.00134649       0.07763215      -0.18761828      -0.00134649       0.07763215
C        6.78164117       6.24715084       7.25580489      -0.09335804      -0.16395282      -0.07760206      -0.09335804      -0.16395282      -0.07760206
H        8.94704355       7.50428045       6.14958367       0.11741251       0.00035661       0.06740096       0.11741251       0.00035661       0.06740096
H        9.98347233       7.50727772       7.60638908       0.15334419       0.00078239      -0.06282105       0.15334419       0.00078239      -0.06282105
H        8.21981766       8.75520525       8.85043624       0.05824757       0.10265052      -0.06605190       0.05824757       0.10265052      -0.06605190
H        8.73542419       9.65440500       7.39367610       0.07685773       0.13431109       0.06294806       0.07685773       0.13431109       0.06294806
H        8.74805873       5.35290560       7.39362619       0.07800213      -0.13363103       0.06282285       0.07800213      -0.13363103       0.06282285
H        8.22715181       6.24893583       8.85042388       0.05922485      -0.10177018      -0.06636274       0.05922485      -0.10177018      -0.06636274
H        6.25193015       9.64711932       7.60637288      -0.07777304       0.13335901      -0.06306505      -0.07777304       0.13335901      -0.06306505
H        6.77287401       8.75103587       6.14957371      -0.05931406       0.10197869       0.06633035      -0.05931406       0.10197869       0.06633035
H        6.05294315       7.49575311       8.85041010      -0.11739966      -0.00040881      -0.06720169      -0.11739966      -0.00040881      -0.06720169
H        5.01654961       7.49268840       7.39358748      -0.15364270      -0.00055664       0.06281154      -0.15364270      -0.00055664       0.06281154
H        6.78015424       6.24471775       6.14957715      -0.05815373      -0.10230831       0.06605961      -0.05815373      -0.10230831       0.06605961
H        6.26455950       5.34562779       7.60634904      -0.07685824      -0.13454660      -0.06266113      -0.07685824      -0.13454660      -0.06266113
18
Lattice="14.99999999685098 0.0 0.0 0.0 14.99999999685098 0.0 0.0 0.0 14.99999999685098" Properties=species:S:1:pos:R:3:forces_eV_per_au:R:3:forces:R:3 energy_eV=-1124.5436651129007 energy=-1124.5436651129007 free_energy=-1124.5436651129007 pbc="T T T"
C        8.95208230       7.50433038       7.25379390       0.00592511      -0.00015967       0.15145880       0.00592511      -0.00015967       0.15145880
C        8.22230331       8.75983001       7.74627896       0.00327867       0.00529287      -0.15166629       0.00327867       0.00529287      -0.15166629
C        8.22977566       6.24449360       7.74627734       0.00361806      -0.00557724      -0.15212112       0.00361806      -0.00557724      -0.15212112
C        6.77023134       8.75551908       7.25372503      -0.00366356       0.00533992       0.15173314      -0.00366356       0.00533992       0.15173314
C        6.04792152       7.49568826       7.74619610      -0.00607603      -0.00008973      -0.15113381      -0.00607603      -0.00008973      -0.15113381
C        6.77769562       6.24017852       7.25373501      -0.00327713      -0.00559035       0.15168017      -0.00327713      -0.00559035       0.15168017
H        8.95288190       7.50429515       6.15166045       0.11201577       0.00044274      -0.04365759       0.11201577       0.00044274      -0.04365759
H        9.99317729       7.50732046       7.60358363       0.10071037       0.00079447      -0.06443699       0.10071037       0.00079447      -0.06443699
H        8.22271487       8.76030481       8.84840454       0.05550549       0.09818709       0.04386636       0.05550549       0.09818709       0.04386636
H        8.74027521       9.66287557       7.39648869       0.05062116       0.08881644       0.06454754       0.05062116       0.08881644       0.06454754
H        8.75297567       5.34446665       7.39643099       0.05156502      -0.08767770       0.06470721       0.05156502      -0.08767770       0.06470721
H        8.23009701       6.24387979       8.84838850       0.05661029      -0.09732911       0.04422940       0.05661029      -0.09732911       0.04422940
H        6.24702471       9.65554129       7.60355461      -0.05161567       0.08783840      -0.06467559      -0.05161567       0.08783840      -0.06467559
H        6.76992375       8.75610365       6.15161087      -0.05660052       0.09746512      -0.04416641      -0.05660052       0.09746512      -0.04416641
H        6.04710611       7.49573403       8.84833810      -0.11202888      -0.00049288       0.04341462      -0.11202888      -0.00049288       0.04341462
H        5.00682974       7.49265588       7.39639229      -0.10067823      -0.00059290       0.06446681      -0.10067823      -0.00059290       0.06446681
H        6.77726169       6.23963651       6.15160560      -0.05544301      -0.09799374      -0.04374295      -0.05544301      -0.09799374      -0.04374295
H        6.25970790       5.33714412       7.60355203      -0.05046690      -0.08867349      -0.06450332      -0.05046690      -0.08867349      -0.06450332
18
Lattice="14.99999999685098 0.0 0.0 0.0 14.99999999685098 0.0 0.0 0.0 14.99999999685098" Properties=species:S:1:pos:R:3:forces_eV_per_au:R:3:forces:R:3 energy_eV=-1124.552888275405 energy=-1124.552888275405 free_energy=-1124.552888275405 pbc="T T T"
C        8.95737595       7.50436954       7.25478189       0.01235569      -0.00031650       0.15503366       0.01235569      -0.00031650       0.15503366
C        8.22493035       8.76449814       7.74529540       0.00657714       0.01017823      -0.15534091       0.00657714       0.01017823      -0.15534091
C        8.23247164       6.23986290       7.74529806       0.00649229      -0.01065671      -0.15557771       0.00649229      -0.01065671      -0.15557771
C        6.76754013       8.76014083       7.25470145      -0.00666944       0.01045745       0.15531623      -0.00666944       0.01045745       0.15531623
C        6.04262221       7.49564424       7.74520892      -0.01243488       0.00008793      -0.15490485      -0.01243488       0.00008793      -0.15490485
C        6.77506614       6.23550214       7.25471850      -0.00653394      -0.01033789       0.15541033      -0.00653394      -0.01033789       0.15541033
H        8.96054580       7.50431830       6.15262066       0.09224295       0.00049288      -0.04695014       0.09224295       0.00049288      -0.04695014
H       10.00433269       7.50737738       7.60003057      -0.03679326       0.00046023      -0.06263259      -0.03679326       0.00046023      -0.06263259
H        8.22651629       8.76700665       8.84747647       0.04567256       0.08113090       0.04634542       0.04567256       0.08113090       0.04634542
H        8.74585431       9.67262691       7.40005093      -0.01812088      -0.03091314       0.06282696      -0.01812088      -0.03091314       0.06282696
H        8.75863796       5.33476775       7.39998976      -0.01760074       0.03165799       0.06304448      -0.01760074       0.03165799       0.06304448
H        8.23396638       6.23723499       8.84746865       0.04675500      -0.08040714       0.04658762       0.04675500      -0.08040714       0.04658762
H        6.24137075       9.66522916       7.59998535       0.01745753      -0.03135872      -0.06288661       0.01745753      -0.03135872      -0.06288661
H        6.76605075       8.76276135       6.15253275      -0.04669535       0.08041716      -0.04667015      -0.04669535       0.08041716      -0.04667015
H        6.03944305       7.49570577       8.84737406      -0.09227946      -0.00051833       0.04684087      -0.09227946      -0.00051833       0.04684087
H        4.99566380       7.49261194       7.39994569       0.03697375      -0.00033630       0.06270149       0.03697375      -0.00033630       0.06270149
H        6.77346531       6.23295433       6.15253405      -0.04566665      -0.08109594      -0.04622329      -0.04566665      -0.08109594      -0.04622329
H        6.25413208       5.32738546       7.60000347       0.01826743       0.03105815      -0.06292081       0.01826743       0.03105815      -0.06292081
18
Lattice="14.99999999685098 0.0 0.0 0.0 14.99999999685098 0.0 0.0 0.0 14.99999999685098" Properties=species:S:1:pos:R:3:forces_eV_per_au:R:3:forces:R:3 energy_eV=-1124.5564337826659 energy=-1124.5564337826659 free_energy=-1124.5564337826659 pbc="T T T"
C        8.96069066       7.50438438       7.25674955      -0.05358385      -0.00025377       0.03935639      -0.05358385      -0.00025377       0.03935639
C        8.22658093       8.76740268       7.74332104      -0.02647851      -0.04667941      -0.04001485      -0.02647851      -0.04667941      -0.04001485
C        8.23415630       6.23697308       7.74332873      -0.02674230       0.04624823      -0.04008710      -0.02674230       0.04624823      -0.04008710
C        6.76585282       8.76302376       7.25666837       0.02663560      -0.04627369       0.03990018       0.02663560      -0.04627369       0.03990018
C        6.03930475       7.49562114       7.74324002       0.05358873       0.00022523      -0.03917924       0.05358873       0.00022523      -0.03917924
C        6.77341491       6.23259303       7.25669414       0.02650499       0.04657502       0.04002951       0.02650499       0.04657502       0.04002951
H        8.96651124       7.50434167       6.15297384       0.07591234       0.00044480      -0.00812674       0.07591234       0.00044480      -0.00812674
H       10.00870681       7.50741545       7.59698200      -0.03628649       0.00039852      -0.02234880      -0.03628649       0.00039852      -0.02234880
H        8.22947366       8.77223415       8.84712336       0.03759313       0.06683660       0.00735438       0.03759313       0.06683660       0.00735438
H        8.74804698       9.67647740       7.40310949      -0.01823426      -0.03117848       0.02256734      -0.01823426      -0.03117848       0.02256734
H        8.76088546       5.33095523       7.40304996      -0.01763802       0.03167291       0.02277098      -0.01763802       0.03167291       0.02277098
H        8.23698302       6.23205237       8.84712076       0.03857040      -0.06625810       0.00758733       0.03857040      -0.06625810       0.00758733
H        6.23912518       9.66904133       7.59692286       0.01750047      -0.03147570      -0.02261774       0.01750047      -0.03147570      -0.02261774
H        6.76303368       8.76795007       6.15287731      -0.03851024       0.06620514      -0.00763772      -0.03851024       0.06620514      -0.00763772
H        6.03347714       7.49567942       8.84701924      -0.07595347      -0.00047308       0.00803367      -0.07595347      -0.00047308       0.00803367
H        4.99128824       7.49258282       7.40299615       0.03640991      -0.00036690       0.02238711       0.03640991      -0.00036690       0.02238711
H        6.77051023       6.22773711       6.15288999      -0.03761113      -0.06688596      -0.00728059      -0.03761113      -0.06688596      -0.00728059
H        6.25194359       5.32353269       7.59694980       0.01832220       0.03123865      -0.02269410       0.01832220       0.03123865      -0.02269410
18
Lattice="14.99999999685098 0.0 0.0 0.0 14.99999999685098 0.0 0.0 0.0 14.99999999685098" Properties=species:S:1:pos:R:3:forces_eV_per_au:R:3:forces:R:3 energy_eV=-1124.5581087793996 energy=-1124.5581087793996 free_energy=-1124.5581087793996 pbc="T T T"
C        8.96069180       7.50438481       7.25785265      -0.02135970       0.00009616      -0.02456638      -0.02135970       0.00009616      -0.02456638
C        8.22658492       8.76741326       7.74219583      -0.01083926      -0.01820547       0.02424936      -0.01083926      -0.01820547       0.02424936
C        8.23416936       6.23695962       7.74220597      -0.01065208       0.01847003       0.02451341      -0.01065208       0.01847003       0.02451341
C        6.76583626       8.76303466       7.25778624       0.01060194      -0.01835202      -0.02442162       0.01060194      -0.01835202      -0.02442162
C        6.03930331       7.49561607       7.74214023       0.02139132      -0.00001440       0.02450750       0.02139132      -0.00001440       0.02450750
C        6.77341075       6.23257876       7.25782001       0.01086420       0.01826666      -0.02426581       0.01086420       0.01826666      -0.02426581
H        8.97102007       7.50436317       6.15324182       0.05270761       0.00034504       0.01183710       0.05270761       0.00034504       0.01183710
H       10.00970960       7.50744207       7.59522040      -0.04417747       0.00028745       0.00274568      -0.04417747       0.00028745       0.00274568
H        8.23170798       8.77619320       8.84683685       0.02611649       0.04647140      -0.01266320       0.02611649       0.04647140      -0.01266320
H        8.74854751       9.67737745       7.40488110      -0.02223104      -0.03827190      -0.00273463      -0.02223104      -0.03827190      -0.00273463
H        8.76142563       5.33008328       7.40482720      -0.02164663       0.03837012      -0.00261507      -0.02164663       0.03837012      -0.00261507
H        8.23926788       6.22812730       8.84684140       0.02691636      -0.04605309      -0.01256498       0.02691636      -0.04605309      -0.01256498
H        6.23858264       9.66991752       7.59514831       0.02159572      -0.03836266       0.00268038       0.02159572      -0.03836266       0.00268038
H        6.76075013       8.77187626       6.15315374      -0.02688243       0.04597852       0.01247576      -0.02688243       0.04597852       0.01247576
H        6.02896703       7.49565596       8.84674874      -0.05273333      -0.00036587      -0.01177180      -0.05273333      -0.00036587      -0.01177180
H        4.99028752       7.49256067       7.40475943       0.04424123      -0.00031290      -0.00271508       0.04424123      -0.00031290      -0.00271508
H        6.76827638       6.22378110       6.15317957      -0.02615583      -0.04654211       0.01266423      -0.02615583      -0.04654211       0.01266423
H        6.25144683       5.32263263       7.59517714       0.02224287       0.03819502       0.00264464       0.02224287       0.03819502       0.00264464
18
Lattice="14.99999999685098 0.0 0.0 0.0 14.99999999685098 0.0 0.0 0.0 14.99999999685098" Properties=species:S:1:pos:R:3:forces_eV_per_au:R:3:forces:R:3 energy_eV=-1124.5592813179303 energy=-1124.5592813179303 free_energy=-1124.5592813179303 pbc="T T T"
C        8.96006344       7.50438642       7.25829653      -0.00515660       0.00044891      -0.04806883      -0.00515660       0.00044891      -0.04806883
C        8.22626840       8.76688168       7.74172804      -0.00294726      -0.00382837       0.04782020      -0.00294726      -0.00382837       0.04782020
C        8.23386454       6.23749724       7.74174753      -0.00226540       0.00424361       0.04804672      -0.00226540       0.00424361       0.04804672
C        6.76613688       8.76249907       7.25824413       0.00234973      -0.00413999      -0.04799427       0.00234973      -0.00413999      -0.04799427
C        6.03993234       7.49561301       7.74169650       0.00522037      -0.00031110       0.04805495       0.00522037      -0.00031110       0.04805495
C        6.77372794       6.23311007       7.25828781       0.00291666       0.00392299      -0.04782920       0.00291666       0.00392299      -0.04782920
H        8.97554486       7.50438825       6.15357698       0.02655564       0.00021572       0.01448045       0.02655564       0.00021572       0.01448045
H       10.00854903       7.50746770       7.59412654      -0.01762568       0.00028642       0.03092754      -0.01762568       0.00028642       0.03092754
H        8.23394994       8.78017346       8.84646256       0.01315325       0.02354539      -0.01480673       0.01315325       0.02354539      -0.01480673
H        8.74796385       9.67639364       7.40598086      -0.00898395      -0.01523533      -0.03120702      -0.00898395      -0.01523533      -0.03120702
H        8.76088449       5.33108858       7.40593500      -0.00841882       0.01538805      -0.03104736      -0.00841882       0.01538805      -0.03104736
H        8.24156796       6.22418204       8.84647499       0.01375129      -0.02324843      -0.01467251       0.01375129      -0.02324843      -0.01467251
H        6.23912024       9.66891603       7.59404481       0.00840134      -0.01545439       0.03105893       0.00840134      -0.01545439       0.03105893
H        6.75845214       8.77581962       6.15351522      -0.01375077       0.02319855       0.01471571      -0.01375077       0.02319855       0.01471571
H        6.02444054       7.49562912       8.84641412      -0.02656412      -0.00023166      -0.01442826      -0.02656412      -0.00023166      -0.01442826
H        4.99145210       7.49253711       7.40585551       0.01757478      -0.00033707      -0.03093731       0.01757478      -0.00033707      -0.03093731
H        6.76603337       6.21980016       6.15355617      -0.01318230      -0.02360633       0.01473833      -0.01318230      -0.02360633       0.01473833
H        6.25203353       5.32361457       7.59407337       0.00897186       0.01514303       0.03114891       0.00897186       0.01514303       0.03114891
18
Lattice="14.99999999685098 0.0 0.0 0.0 14.99999999685098 0.0 0.0 0.0 14.99999999685098" Properties=species:S:1:pos:R:3:forces_eV_per_au:R:3:forces:R:3 energy_eV=-1124.5597836400766 energy=-1124.5597836400766 free_energy=-1124.5597836400766 pbc="T T T"
C        8.95943553       7.50439686       7.25803058       0.00999285       0.00042912      -0.02322426       0.00999285       0.00042912      -0.02322426
C        8.22594686       8.76635499       7.74197591       0.00460922       0.00922949       0.02318981       0.00460922       0.00922949       0.02318981
C        8.23356408       6.23803255       7.74200212       0.00532553      -0.00860034       0.02346517       0.00532553      -0.00860034       0.02346517
C        6.76643784       8.76196642       7.25798832      -0.00528130       0.00869007      -0.02332042      -0.00528130       0.00869007      -0.02332042
C        6.04056198       7.49560517       7.74196400      -0.01000236      -0.00035121       0.02313941      -0.01000236      -0.00035121       0.02313941
C        6.77404892       6.23363824       7.25804006      -0.00460433      -0.00914773      -0.02322760      -0.00460433      -0.00914773      -0.02322760
H        8.97807429       7.50440465       6.15373136       0.01189984       0.00017252       0.00534430       0.01189984       0.00017252       0.00534430
H       10.00727792       7.50748566       7.59446404      -0.00298736       0.00034221       0.03928491      -0.00298736       0.00034221       0.03928491
H        8.23520274       8.78240498       8.84628297       0.00587446       0.01072870      -0.00543583       0.00587446       0.01072870      -0.00543583
H        8.74732327       9.67530339       7.40563784      -0.00161388      -0.00233816      -0.03976545      -0.00161388      -0.00233816      -0.03976545
H        8.76027484       5.33219418       7.40560097      -0.00096571       0.00250554      -0.03962790      -0.00096571       0.00250554      -0.03962790
H        8.24286105       6.22197295       8.84630387       0.00639356      -0.01047390      -0.00535407       0.00639356      -0.01047390      -0.00535407
H        6.23972699       9.66781194       7.59438187       0.00099090      -0.00260864       0.03959319       0.00099090      -0.00260864       0.03959319
H        6.75716015       8.77802639       6.15368622      -0.00640385       0.01044819       0.00537078      -0.00640385       0.01044819       0.00537078
H        6.02191008       7.49561164       8.84626029      -0.01189264      -0.00016944      -0.00526845      -0.01189264      -0.00016944      -0.00526845
H        4.99272412       7.49251864       7.40551867       0.00296088      -0.00037538      -0.03928466       0.00296088      -0.00037538      -0.03928466
H        6.76477935       6.21756627       6.15373515      -0.00590017      -0.01075930       0.00538698      -0.00590017      -0.01075930       0.00538698
H        6.25267557       5.32470284       7.59441241       0.00160411       0.00227825       0.03973357       0.00160411       0.00227825       0.03973357
18
Lattice="14.99999999685098 0.0 0.0 0.0 14.99999999685098 0.0 0.0 0.0 14.99999999685098" Properties=species:S:1:pos:R:3:forces_eV_per_au:R:3:forces:R:3 energy_eV=-1124.560184191647 energy=-1124.560184191647 free_energy=-1124.560184191647 pbc="T T T"
C        8.95919554       7.50441485       7.25769875       0.01399426       0.00037204       0.01044614       0.01399426       0.00037204       0.01044614
C        8.22581209       8.76617298       7.74229434       0.00682037       0.01250585      -0.01047519       0.00682037       0.01250585      -0.01047519
C        8.23346292       6.23823776       7.74233242       0.00748885      -0.01222611      -0.01043714       0.00748885      -0.01222611      -0.01043714
C        6.76654000       8.76176529       7.25766105      -0.00745491       0.01217957       0.01039934      -0.00745491       0.01217957       0.01039934
C        6.04080224       7.49559085       7.74229477      -0.01399040      -0.00037795      -0.01039677      -0.01399040      -0.00037795      -0.01039677
C        6.77418389       6.23382301       7.25772054      -0.00682319      -0.01250122       0.01047905      -0.00682319      -0.01250122       0.01047905
H        8.98022565       7.50442167       6.15379203       0.00326453       0.00015684      -0.00194530       0.00326453       0.00015684      -0.00194530
H       10.00621015       7.50750880       7.59578965       0.00817431       0.00041960       0.04009970       0.00817431       0.00041960       0.04009970
H        8.23626753       8.78431026       8.84620103       0.00157172       0.00321105       0.00209519       0.00157172       0.00321105       0.00209519
H        8.74678282       9.67439483       7.40429405       0.00391373       0.00744077      -0.04066020       0.00391373       0.00744077      -0.04066020
H        8.75977547       5.33311943       7.40426784       0.00455702      -0.00697103      -0.04044320       0.00455702      -0.00697103      -0.04044320
H        8.24397015       6.22009137       8.84623071       0.00205765      -0.00292951       0.00225589       0.00205765      -0.00292951       0.00225589
H        6.24022480       9.66688536       7.59571640      -0.00456217       0.00696975       0.04043291      -0.00456217       0.00696975       0.04043291
H        6.75605166       8.77990559       6.15375955      -0.00207205       0.00293800      -0.00216538      -0.00207205       0.00293800      -0.00216538